Program Version,EnergyPlus, Version 23.2.0-7636e6b3e9, YMD=2024.09.15 15:52
1,5,Environment Title[],Latitude[deg],Longitude[deg],Time Zone[],Elevation[m]
2,8,Day of Simulation[],Month[],Day of Month[],DST Indicator[1=yes 0=no],Hour[],StartMinute[],EndMinute[],DayType
3,5,Cumulative Day of Simulation[],Month[],Day of Month[],DST Indicator[1=yes 0=no],DayType  ! When Daily Report Variables Requested
4,2,Cumulative Days of Simulation[],Month[]  ! When Monthly Report Variables Requested
5,1,Cumulative Days of Simulation[] ! When Run Period Report Variables Requested
6,1,Calendar Year of Simulation[] ! When Annual Report Variables Requested
128,1,ROOM_1_93B1EB05,Zone Lights Electricity Energy [J] !Hourly
202,1,ROOM_1_93B1EB05,Zone Electric Equipment Electricity Energy [J] !Hourly
484,1,ROOM_1_93B1EB05 IDEAL LOADS AIR SYSTEM,Zone Ideal Loads Supply Air Total Heating Energy [J] !Hourly
533,1,ROOM_1_93B1EB05 IDEAL LOADS AIR SYSTEM,Zone Ideal Loads Supply Air Total Cooling Energy [J] !Hourly
End of Data Dictionary
1,RUN PERIOD 1,  22.55, 114.10,   8.00,  18.00
2,1, 1, 1, 0, 1, 0.00,60.00,Sunday
128,41778.000000000044
202,188789.28406256178
484,0.0
533,0.0
2,1, 1, 1, 0, 2, 0.00,60.00,Sunday
128,41778.000000000044
202,188789.28406256178
484,0.0
533,0.0
2,1, 1, 1, 0, 3, 0.00,60.00,Sunday
128,41778.000000000044
202,188789.28406256178
484,0.0
533,0.0
2,1, 1, 1, 0, 4, 0.00,60.00,Sunday
128,41778.000000000044
202,188789.28406256178
484,0.0
533,0.0
2,1, 1, 1, 0, 5, 0.00,60.00,Sunday
128,41778.000000000044
202,188789.28406256178
484,0.0
533,0.0
2,1, 1, 1, 0, 6, 0.00,60.00,Sunday
128,41778.000000000044
202,188789.28406256178
484,0.0
533,0.0
2,1, 1, 1, 0, 7, 0.00,60.00,Sunday
128,36026.23891680004
202,235710.85172580025
484,0.0
533,0.0
2,1, 1, 1, 0, 8, 0.00,60.00,Sunday
128,36026.23891680004
202,235710.85172580025
484,0.0
533,0.0
2,1, 1, 1, 0, 9, 0.00,60.00,Sunday
128,36026.23891680004
202,235710.85172580025
484,0.0
533,0.0
2,1, 1, 1, 0,10, 0.00,60.00,Sunday
128,36026.23891680004
202,235710.85172580025
484,0.0
533,0.0
2,1, 1, 1, 0,11, 0.00,60.00,Sunday
128,36026.23891680004
202,235710.85172580025
484,0.0
533,0.0
2,1, 1, 1, 0,12, 0.00,60.00,Sunday
128,36026.23891680004
202,235710.85172580025
484,0.0
533,0.0
2,1, 1, 1, 0,13, 0.00,60.00,Sunday
128,36026.23891680004
202,235710.85172580025
484,0.0
533,0.0
2,1, 1, 1, 0,14, 0.00,60.00,Sunday
128,36026.23891680004
202,235710.85172580025
484,0.0
533,82153.70723673035
2,1, 1, 1, 0,15, 0.00,60.00,Sunday
128,36026.23891680004
202,235710.85172580025
484,0.0
533,55701.6930810615
2,1, 1, 1, 0,16, 0.00,60.00,Sunday
128,36026.23891680004
202,235710.85172580025
484,0.0
533,0.0
2,1, 1, 1, 0,17, 0.00,60.00,Sunday
128,36026.23891680004
202,235710.85172580025
484,0.0
533,0.0
2,1, 1, 1, 0,18, 0.00,60.00,Sunday
128,36026.23891680004
202,235710.85172580025
484,0.0
533,0.0
2,1, 1, 1, 0,19, 0.00,60.00,Sunday
128,41778.000000000044
202,188789.28406256178
484,0.0
533,0.0
2,1, 1, 1, 0,20, 0.00,60.00,Sunday
128,41778.000000000044
202,188789.28406256178
484,0.0
533,0.0
2,1, 1, 1, 0,21, 0.00,60.00,Sunday
128,41778.000000000044
202,188789.28406256178
484,0.0
533,0.0
2,1, 1, 1, 0,22, 0.00,60.00,Sunday
128,41778.000000000044
202,188789.28406256178
484,0.0
533,0.0
2,1, 1, 1, 0,23, 0.00,60.00,Sunday
128,41778.000000000044
202,188789.28406256178
484,0.0
533,0.0
2,1, 1, 1, 0,24, 0.00,60.00,Sunday
128,41778.000000000044
202,188789.28406256178
484,0.0
533,0.0
End of Data
 Number of Records Written=          96
