Program Version,EnergyPlus, Version 23.2.0-7636e6b3e9, YMD=2024.09.01 20:02
1,5,Environment Title[],Latitude[deg],Longitude[deg],Time Zone[],Elevation[m]
2,8,Day of Simulation[],Month[],Day of Month[],DST Indicator[1=yes 0=no],Hour[],StartMinute[],EndMinute[],DayType
3,5,Cumulative Day of Simulation[],Month[],Day of Month[],DST Indicator[1=yes 0=no],DayType  ! When Daily Report Variables Requested
4,2,Cumulative Days of Simulation[],Month[]  ! When Monthly Report Variables Requested
5,1,Cumulative Days of Simulation[] ! When Run Period Report Variables Requested
6,1,Calendar Year of Simulation[] ! When Annual Report Variables Requested
128,1,ROOM_1_24BC84ED,Zone Lights Electricity Energy [J] !Hourly
202,1,ROOM_1_24BC84ED,Zone Electric Equipment Electricity Energy [J] !Hourly
484,1,ROOM_1_24BC84ED IDEAL LOADS AIR SYSTEM,Zone Ideal Loads Supply Air Total Heating Energy [J] !Hourly
533,1,ROOM_1_24BC84ED IDEAL LOADS AIR SYSTEM,Zone Ideal Loads Supply Air Total Cooling Energy [J] !Hourly
End of Data Dictionary
1,RUN PERIOD 1,  22.55, 114.10,   8.00,  18.00
2,1, 1, 1, 0, 1, 0.00,60.00,Sunday
128,41778.000000000044
202,188789.28406256178
484,0.0
533,0.0
2,1, 1, 1, 0, 2, 0.00,60.00,Sunday
128,41778.000000000044
202,188789.28406256178
484,0.0
533,0.0
2,1, 1, 1, 0, 3, 0.00,60.00,Sunday
128,41778.000000000044
202,188789.28406256178
484,0.0
533,0.0
2,1, 1, 1, 0, 4, 0.00,60.00,Sunday
128,41778.000000000044
202,188789.28406256178
484,0.0
533,0.0
2,1, 1, 1, 0, 5, 0.00,60.00,Sunday
128,41778.000000000044
202,188789.28406256178
484,0.0
533,0.0
2,1, 1, 1, 0, 6, 0.00,60.00,Sunday
128,41778.000000000044
202,188789.28406256178
484,0.0
533,0.0
2,1, 1, 1, 0, 7, 0.00,60.00,Sunday
128,36026.23891680004
202,235710.85172580025
484,0.0
533,0.0
2,1, 1, 1, 0, 8, 0.00,60.00,Sunday
128,36026.23891680004
202,235710.85172580025
484,0.0
533,0.0
2,1, 1, 1, 0, 9, 0.00,60.00,Sunday
128,36026.23891680004
202,235710.85172580025
484,0.0
533,0.0
2,1, 1, 1, 0,10, 0.00,60.00,Sunday
128,36026.23891680004
202,235710.85172580025
484,0.0
533,0.0
2,1, 1, 1, 0,11, 0.00,60.00,Sunday
128,36026.23891680004
202,235710.85172580025
484,0.0
533,0.0
2,1, 1, 1, 0,12, 0.00,60.00,Sunday
128,36026.23891680004
202,235710.85172580025
484,0.0
533,0.0
2,1, 1, 1, 0,13, 0.00,60.00,Sunday
128,36026.23891680004
202,235710.85172580025
484,0.0
533,0.0
2,1, 1, 1, 0,14, 0.00,60.00,Sunday
128,36026.23891680004
202,235710.85172580025
484,0.0
533,0.0
2,1, 1, 1, 0,15, 0.00,60.00,Sunday
128,36026.23891680004
202,235710.85172580025
484,0.0
533,0.0
2,1, 1, 1, 0,16, 0.00,60.00,Sunday
128,36026.23891680004
202,235710.85172580025
484,0.0
533,0.0
2,1, 1, 1, 0,17, 0.00,60.00,Sunday
128,36026.23891680004
202,235710.85172580025
484,0.0
533,0.0
2,1, 1, 1, 0,18, 0.00,60.00,Sunday
128,36026.23891680004
202,235710.85172580025
484,0.0
533,0.0
2,1, 1, 1, 0,19, 0.00,60.00,Sunday
128,41778.000000000044
202,188789.28406256178
484,0.0
533,0.0
2,1, 1, 1, 0,20, 0.00,60.00,Sunday
128,41778.000000000044
202,188789.28406256178
484,0.0
533,0.0
2,1, 1, 1, 0,21, 0.00,60.00,Sunday
128,41778.000000000044
202,188789.28406256178
484,0.0
533,0.0
2,1, 1, 1, 0,22, 0.00,60.00,Sunday
128,41778.000000000044
202,188789.28406256178
484,0.0
533,0.0
2,1, 1, 1, 0,23, 0.00,60.00,Sunday
128,41778.000000000044
202,188789.28406256178
484,0.0
533,0.0
2,1, 1, 1, 0,24, 0.00,60.00,Sunday
128,41778.000000000044
202,188789.28406256178
484,0.0
533,0.0
2,2, 1, 2, 0, 1, 0.00,60.00,Monday
128,41778.000000000044
202,251719.04541674902
484,0.0
533,0.0
2,2, 1, 2, 0, 2, 0.00,60.00,Monday
128,41778.000000000044
202,251719.04541674902
484,0.0
533,0.0
2,2, 1, 2, 0, 3, 0.00,60.00,Monday
128,41778.000000000044
202,251719.04541674902
484,0.0
533,0.0
2,2, 1, 2, 0, 4, 0.00,60.00,Monday
128,41778.000000000044
202,251719.04541674902
484,0.0
533,0.0
2,2, 1, 2, 0, 5, 0.00,60.00,Monday
128,41778.000000000044
202,251719.04541674902
484,0.0
533,0.0
2,2, 1, 2, 0, 6, 0.00,60.00,Monday
128,83556.00000000009
202,251719.04541674902
484,0.0
533,0.0
2,2, 1, 2, 0, 7, 0.00,60.00,Monday
128,72052.47783360007
202,311901.9110602563
484,0.0
533,0.0
2,2, 1, 2, 0, 8, 0.00,60.00,Monday
128,216157.43350080022
202,311901.9110602563
484,0.0
533,0.0
2,2, 1, 2, 0, 9, 0.00,60.00,Monday
128,648472.3005024007
202,701779.2998855767
484,0.0
533,0.0
2,2, 1, 2, 0,10, 0.00,60.00,Monday
128,648472.3005024007
202,701779.2998855767
484,0.0
533,0.0
2,2, 1, 2, 0,11, 0.00,60.00,Monday
128,648472.3005024007
202,701779.2998855767
484,0.0
533,17850.711744948287
2,2, 1, 2, 0,12, 0.00,60.00,Monday
128,648472.3005024007
202,701779.2998855767
484,0.0
533,612468.3038449321
2,2, 1, 2, 0,13, 0.00,60.00,Monday
128,648472.3005024007
202,623803.8221205126
484,0.0
533,1136896.4995501118
2,2, 1, 2, 0,14, 0.00,60.00,Monday
128,648472.3005024007
202,701779.2998855767
484,0.0
533,1875777.033841393
2,2, 1, 2, 0,15, 0.00,60.00,Monday
128,648472.3005024007
202,701779.2998855767
484,0.0
533,1868404.3134106717
2,2, 1, 2, 0,16, 0.00,60.00,Monday
128,648472.3005024007
202,701779.2998855767
484,0.0
533,1407279.7930671351
2,2, 1, 2, 0,17, 0.00,60.00,Monday
128,648472.3005024007
202,701779.2998855767
484,0.0
533,837837.6238810471
2,2, 1, 2, 0,18, 0.00,60.00,Monday
128,360262.38916800043
202,389877.38882532035
484,0.0
533,13138.976994726576
2,2, 1, 2, 0,19, 0.00,60.00,Monday
128,216157.43350080022
202,311901.9110602563
484,0.0
533,0.0
2,2, 1, 2, 0,20, 0.00,60.00,Monday
128,216157.43350080022
202,311901.9110602563
484,0.0
533,0.0
2,2, 1, 2, 0,21, 0.00,60.00,Monday
128,144104.95566720015
202,311901.9110602563
484,0.0
533,0.0
2,2, 1, 2, 0,22, 0.00,60.00,Monday
128,144104.95566720015
202,311901.9110602563
484,0.0
533,0.0
2,2, 1, 2, 0,23, 0.00,60.00,Monday
128,72052.47783360007
202,311901.9110602563
484,0.0
533,0.0
2,2, 1, 2, 0,24, 0.00,60.00,Monday
128,36026.23891680004
202,311901.9110602563
484,0.0
533,0.0
2,3, 1, 3, 0, 1, 0.00,60.00,Tuesday
128,41778.000000000044
202,251719.04541674902
484,0.0
533,0.0
2,3, 1, 3, 0, 2, 0.00,60.00,Tuesday
128,41778.000000000044
202,251719.04541674902
484,0.0
533,0.0
2,3, 1, 3, 0, 3, 0.00,60.00,Tuesday
128,41778.000000000044
202,251719.04541674902
484,0.0
533,0.0
2,3, 1, 3, 0, 4, 0.00,60.00,Tuesday
128,41778.000000000044
202,251719.04541674902
484,0.0
533,0.0
2,3, 1, 3, 0, 5, 0.00,60.00,Tuesday
128,41778.000000000044
202,251719.04541674902
484,0.0
533,0.0
2,3, 1, 3, 0, 6, 0.00,60.00,Tuesday
128,83556.00000000009
202,251719.04541674902
484,0.0
533,0.0
2,3, 1, 3, 0, 7, 0.00,60.00,Tuesday
128,72052.47783360007
202,311901.9110602563
484,0.0
533,0.0
2,3, 1, 3, 0, 8, 0.00,60.00,Tuesday
128,216157.43350080022
202,311901.9110602563
484,0.0
533,0.0
2,3, 1, 3, 0, 9, 0.00,60.00,Tuesday
128,648472.3005024007
202,701779.2998855767
484,0.0
533,0.0
2,3, 1, 3, 0,10, 0.00,60.00,Tuesday
128,648472.3005024007
202,701779.2998855767
484,0.0
533,0.0
2,3, 1, 3, 0,11, 0.00,60.00,Tuesday
128,648472.3005024007
202,701779.2998855767
484,0.0
533,157665.67302348703
2,3, 1, 3, 0,12, 0.00,60.00,Tuesday
128,648472.3005024007
202,701779.2998855767
484,0.0
533,973949.94789928
2,3, 1, 3, 0,13, 0.00,60.00,Tuesday
128,648472.3005024007
202,623803.8221205126
484,0.0
533,1279301.5200964466
2,3, 1, 3, 0,14, 0.00,60.00,Tuesday
128,648472.3005024007
202,701779.2998855767
484,0.0
533,1651609.9782848815
2,3, 1, 3, 0,15, 0.00,60.00,Tuesday
128,648472.3005024007
202,701779.2998855767
484,0.0
533,1669950.3338384535
2,3, 1, 3, 0,16, 0.00,60.00,Tuesday
128,648472.3005024007
202,701779.2998855767
484,0.0
533,1290551.7780735004
2,3, 1, 3, 0,17, 0.00,60.00,Tuesday
128,648472.3005024007
202,701779.2998855767
484,0.0
533,733040.2272736212
2,3, 1, 3, 0,18, 0.00,60.00,Tuesday
128,360262.38916800043
202,389877.38882532035
484,0.0
533,5855.172734413715
2,3, 1, 3, 0,19, 0.00,60.00,Tuesday
128,216157.43350080022
202,311901.9110602563
484,0.0
533,0.0
2,3, 1, 3, 0,20, 0.00,60.00,Tuesday
128,216157.43350080022
202,311901.9110602563
484,0.0
533,0.0
2,3, 1, 3, 0,21, 0.00,60.00,Tuesday
128,144104.95566720015
202,311901.9110602563
484,0.0
533,0.0
2,3, 1, 3, 0,22, 0.00,60.00,Tuesday
128,144104.95566720015
202,311901.9110602563
484,0.0
533,0.0
2,3, 1, 3, 0,23, 0.00,60.00,Tuesday
128,72052.47783360007
202,311901.9110602563
484,0.0
533,0.0
2,3, 1, 3, 0,24, 0.00,60.00,Tuesday
128,36026.23891680004
202,311901.9110602563
484,0.0
533,0.0
2,4, 1, 4, 0, 1, 0.00,60.00,Wednesday
128,41778.000000000044
202,251719.04541674902
484,0.0
533,0.0
2,4, 1, 4, 0, 2, 0.00,60.00,Wednesday
128,41778.000000000044
202,251719.04541674902
484,0.0
533,0.0
2,4, 1, 4, 0, 3, 0.00,60.00,Wednesday
128,41778.000000000044
202,251719.04541674902
484,0.0
533,0.0
2,4, 1, 4, 0, 4, 0.00,60.00,Wednesday
128,41778.000000000044
202,251719.04541674902
484,0.0
533,0.0
2,4, 1, 4, 0, 5, 0.00,60.00,Wednesday
128,41778.000000000044
202,251719.04541674902
484,0.0
533,0.0
2,4, 1, 4, 0, 6, 0.00,60.00,Wednesday
128,83556.00000000009
202,251719.04541674902
484,0.0
533,0.0
2,4, 1, 4, 0, 7, 0.00,60.00,Wednesday
128,72052.47783360007
202,311901.9110602563
484,0.0
533,0.0
2,4, 1, 4, 0, 8, 0.00,60.00,Wednesday
128,216157.43350080022
202,311901.9110602563
484,0.0
533,0.0
2,4, 1, 4, 0, 9, 0.00,60.00,Wednesday
128,648472.3005024007
202,701779.2998855767
484,0.0
533,0.0
2,4, 1, 4, 0,10, 0.00,60.00,Wednesday
128,648472.3005024007
202,701779.2998855767
484,0.0
533,0.0
2,4, 1, 4, 0,11, 0.00,60.00,Wednesday
128,648472.3005024007
202,701779.2998855767
484,0.0
533,0.0
2,4, 1, 4, 0,12, 0.00,60.00,Wednesday
128,648472.3005024007
202,701779.2998855767
484,0.0
533,16003.421601976605
2,4, 1, 4, 0,13, 0.00,60.00,Wednesday
128,648472.3005024007
202,623803.8221205126
484,0.0
533,180629.37683858076
2,4, 1, 4, 0,14, 0.00,60.00,Wednesday
128,648472.3005024007
202,701779.2998855767
484,0.0
533,701248.5505245617
2,4, 1, 4, 0,15, 0.00,60.00,Wednesday
128,648472.3005024007
202,701779.2998855767
484,0.0
533,869139.193745873
2,4, 1, 4, 0,16, 0.00,60.00,Wednesday
128,648472.3005024007
202,701779.2998855767
484,0.0
533,593667.4648847176
2,4, 1, 4, 0,17, 0.00,60.00,Wednesday
128,648472.3005024007
202,701779.2998855767
484,0.0
533,93019.14128118065
2,4, 1, 4, 0,18, 0.00,60.00,Wednesday
128,360262.38916800043
202,389877.38882532035
484,0.0
533,0.0
2,4, 1, 4, 0,19, 0.00,60.00,Wednesday
128,216157.43350080022
202,311901.9110602563
484,0.0
533,0.0
2,4, 1, 4, 0,20, 0.00,60.00,Wednesday
128,216157.43350080022
202,311901.9110602563
484,0.0
533,0.0
2,4, 1, 4, 0,21, 0.00,60.00,Wednesday
128,144104.95566720015
202,311901.9110602563
484,0.0
533,0.0
2,4, 1, 4, 0,22, 0.00,60.00,Wednesday
128,144104.95566720015
202,311901.9110602563
484,0.0
533,0.0
2,4, 1, 4, 0,23, 0.00,60.00,Wednesday
128,72052.47783360007
202,311901.9110602563
484,0.0
533,0.0
2,4, 1, 4, 0,24, 0.00,60.00,Wednesday
128,36026.23891680004
202,311901.9110602563
484,0.0
533,0.0
2,5, 1, 5, 0, 1, 0.00,60.00,Thursday
128,41778.000000000044
202,251719.04541674902
484,0.0
533,0.0
2,5, 1, 5, 0, 2, 0.00,60.00,Thursday
128,41778.000000000044
202,251719.04541674902
484,0.0
533,0.0
2,5, 1, 5, 0, 3, 0.00,60.00,Thursday
128,41778.000000000044
202,251719.04541674902
484,0.0
533,0.0
2,5, 1, 5, 0, 4, 0.00,60.00,Thursday
128,41778.000000000044
202,251719.04541674902
484,0.0
533,0.0
2,5, 1, 5, 0, 5, 0.00,60.00,Thursday
128,41778.000000000044
202,251719.04541674902
484,0.0
533,0.0
2,5, 1, 5, 0, 6, 0.00,60.00,Thursday
128,83556.00000000009
202,251719.04541674902
484,0.0
533,0.0
2,5, 1, 5, 0, 7, 0.00,60.00,Thursday
128,72052.47783360007
202,311901.9110602563
484,7986.711859021998
533,0.0
2,5, 1, 5, 0, 8, 0.00,60.00,Thursday
128,216157.43350080022
202,311901.9110602563
484,72594.75586393483
533,0.0
2,5, 1, 5, 0, 9, 0.00,60.00,Thursday
128,648472.3005024007
202,701779.2998855767
484,0.0
533,0.0
2,5, 1, 5, 0,10, 0.00,60.00,Thursday
128,648472.3005024007
202,701779.2998855767
484,0.0
533,0.0
2,5, 1, 5, 0,11, 0.00,60.00,Thursday
128,648472.3005024007
202,701779.2998855767
484,0.0
533,0.0
2,5, 1, 5, 0,12, 0.00,60.00,Thursday
128,648472.3005024007
202,701779.2998855767
484,0.0
533,0.0
2,5, 1, 5, 0,13, 0.00,60.00,Thursday
128,648472.3005024007
202,623803.8221205126
484,0.0
533,0.0
2,5, 1, 5, 0,14, 0.00,60.00,Thursday
128,648472.3005024007
202,701779.2998855767
484,0.0
533,0.0
2,5, 1, 5, 0,15, 0.00,60.00,Thursday
128,648472.3005024007
202,701779.2998855767
484,0.0
533,0.0
2,5, 1, 5, 0,16, 0.00,60.00,Thursday
128,648472.3005024007
202,701779.2998855767
484,0.0
533,0.0
2,5, 1, 5, 0,17, 0.00,60.00,Thursday
128,648472.3005024007
202,701779.2998855767
484,0.0
533,0.0
2,5, 1, 5, 0,18, 0.00,60.00,Thursday
128,360262.38916800043
202,389877.38882532035
484,0.0
533,0.0
2,5, 1, 5, 0,19, 0.00,60.00,Thursday
128,216157.43350080022
202,311901.9110602563
484,0.0
533,0.0
2,5, 1, 5, 0,20, 0.00,60.00,Thursday
128,216157.43350080022
202,311901.9110602563
484,0.0
533,0.0
2,5, 1, 5, 0,21, 0.00,60.00,Thursday
128,144104.95566720015
202,311901.9110602563
484,0.0
533,0.0
2,5, 1, 5, 0,22, 0.00,60.00,Thursday
128,144104.95566720015
202,311901.9110602563
484,0.0
533,0.0
2,5, 1, 5, 0,23, 0.00,60.00,Thursday
128,72052.47783360007
202,311901.9110602563
484,0.0
533,0.0
2,5, 1, 5, 0,24, 0.00,60.00,Thursday
128,36026.23891680004
202,311901.9110602563
484,0.0
533,0.0
2,6, 1, 6, 0, 1, 0.00,60.00,Friday
128,41778.000000000044
202,251719.04541674902
484,0.0
533,0.0
2,6, 1, 6, 0, 2, 0.00,60.00,Friday
128,41778.000000000044
202,251719.04541674902
484,0.0
533,0.0
2,6, 1, 6, 0, 3, 0.00,60.00,Friday
128,41778.000000000044
202,251719.04541674902
484,0.0
533,0.0
2,6, 1, 6, 0, 4, 0.00,60.00,Friday
128,41778.000000000044
202,251719.04541674902
484,0.0
533,0.0
2,6, 1, 6, 0, 5, 0.00,60.00,Friday
128,41778.000000000044
202,251719.04541674902
484,0.0
533,0.0
2,6, 1, 6, 0, 6, 0.00,60.00,Friday
128,83556.00000000009
202,251719.04541674902
484,0.0
533,0.0
2,6, 1, 6, 0, 7, 0.00,60.00,Friday
128,72052.47783360007
202,311901.9110602563
484,0.0
533,0.0
2,6, 1, 6, 0, 8, 0.00,60.00,Friday
128,216157.43350080022
202,311901.9110602563
484,127379.91165697886
533,0.0
2,6, 1, 6, 0, 9, 0.00,60.00,Friday
128,648472.3005024007
202,701779.2998855767
484,0.0
533,0.0
2,6, 1, 6, 0,10, 0.00,60.00,Friday
128,648472.3005024007
202,701779.2998855767
484,0.0
533,0.0
2,6, 1, 6, 0,11, 0.00,60.00,Friday
128,648472.3005024007
202,701779.2998855767
484,0.0
533,0.0
2,6, 1, 6, 0,12, 0.00,60.00,Friday
128,648472.3005024007
202,701779.2998855767
484,0.0
533,0.0
2,6, 1, 6, 0,13, 0.00,60.00,Friday
128,648472.3005024007
202,623803.8221205126
484,0.0
533,127366.7992847834
2,6, 1, 6, 0,14, 0.00,60.00,Friday
128,648472.3005024007
202,701779.2998855767
484,0.0
533,916101.2856442183
2,6, 1, 6, 0,15, 0.00,60.00,Friday
128,648472.3005024007
202,701779.2998855767
484,0.0
533,1088929.4948316829
2,6, 1, 6, 0,16, 0.00,60.00,Friday
128,648472.3005024007
202,701779.2998855767
484,0.0
533,777291.3801702296
2,6, 1, 6, 0,17, 0.00,60.00,Friday
128,648472.3005024007
202,701779.2998855767
484,0.0
533,377457.7416591133
2,6, 1, 6, 0,18, 0.00,60.00,Friday
128,360262.38916800043
202,389877.38882532035
484,0.0
533,0.0
2,6, 1, 6, 0,19, 0.00,60.00,Friday
128,216157.43350080022
202,311901.9110602563
484,0.0
533,0.0
2,6, 1, 6, 0,20, 0.00,60.00,Friday
128,216157.43350080022
202,311901.9110602563
484,0.0
533,0.0
2,6, 1, 6, 0,21, 0.00,60.00,Friday
128,144104.95566720015
202,311901.9110602563
484,0.0
533,0.0
2,6, 1, 6, 0,22, 0.00,60.00,Friday
128,144104.95566720015
202,311901.9110602563
484,0.0
533,0.0
2,6, 1, 6, 0,23, 0.00,60.00,Friday
128,72052.47783360007
202,311901.9110602563
484,0.0
533,0.0
2,6, 1, 6, 0,24, 0.00,60.00,Friday
128,36026.23891680004
202,311901.9110602563
484,0.0
533,0.0
2,7, 1, 7, 0, 1, 0.00,60.00,Saturday
128,41778.000000000044
202,188789.28406256178
484,0.0
533,0.0
2,7, 1, 7, 0, 2, 0.00,60.00,Saturday
128,41778.000000000044
202,188789.28406256178
484,0.0
533,0.0
2,7, 1, 7, 0, 3, 0.00,60.00,Saturday
128,41778.000000000044
202,188789.28406256178
484,0.0
533,0.0
2,7, 1, 7, 0, 4, 0.00,60.00,Saturday
128,41778.000000000044
202,188789.28406256178
484,0.0
533,0.0
2,7, 1, 7, 0, 5, 0.00,60.00,Saturday
128,41778.000000000044
202,188789.28406256178
484,0.0
533,0.0
2,7, 1, 7, 0, 6, 0.00,60.00,Saturday
128,41778.000000000044
202,188789.28406256178
484,0.0
533,0.0
2,7, 1, 7, 0, 7, 0.00,60.00,Saturday
128,72052.47783360007
202,311901.9110602563
484,45783.4680595965
533,0.0
2,7, 1, 7, 0, 8, 0.00,60.00,Saturday
128,72052.47783360007
202,311901.9110602563
484,292454.3022111356
533,0.0
2,7, 1, 7, 0, 9, 0.00,60.00,Saturday
128,216157.43350080022
202,389877.38882532035
484,0.0
533,0.0
2,7, 1, 7, 0,10, 0.00,60.00,Saturday
128,216157.43350080022
202,389877.38882532035
484,0.0
533,0.0
2,7, 1, 7, 0,11, 0.00,60.00,Saturday
128,216157.43350080022
202,389877.38882532035
484,0.0
533,0.0
2,7, 1, 7, 0,12, 0.00,60.00,Saturday
128,216157.43350080022
202,389877.38882532035
484,0.0
533,0.0
2,7, 1, 7, 0,13, 0.00,60.00,Saturday
128,108078.71675040011
202,272914.17217772425
484,0.0
533,0.0
2,7, 1, 7, 0,14, 0.00,60.00,Saturday
128,108078.71675040011
202,272914.17217772425
484,0.0
533,0.0
2,7, 1, 7, 0,15, 0.00,60.00,Saturday
128,108078.71675040011
202,272914.17217772425
484,0.0
533,0.0
2,7, 1, 7, 0,16, 0.00,60.00,Saturday
128,108078.71675040011
202,272914.17217772425
484,0.0
533,0.0
2,7, 1, 7, 0,17, 0.00,60.00,Saturday
128,108078.71675040011
202,272914.17217772425
484,0.0
533,0.0
2,7, 1, 7, 0,18, 0.00,60.00,Saturday
128,36026.23891680004
202,233926.43329519226
484,0.0
533,0.0
2,7, 1, 7, 0,19, 0.00,60.00,Saturday
128,36026.23891680004
202,233926.43329519226
484,0.0
533,0.0
2,7, 1, 7, 0,20, 0.00,60.00,Saturday
128,41778.000000000044
202,188789.28406256178
484,0.0
533,0.0
2,7, 1, 7, 0,21, 0.00,60.00,Saturday
128,41778.000000000044
202,188789.28406256178
484,0.0
533,0.0
2,7, 1, 7, 0,22, 0.00,60.00,Saturday
128,41778.000000000044
202,188789.28406256178
484,0.0
533,0.0
2,7, 1, 7, 0,23, 0.00,60.00,Saturday
128,41778.000000000044
202,188789.28406256178
484,0.0
533,0.0
2,7, 1, 7, 0,24, 0.00,60.00,Saturday
128,41778.000000000044
202,188789.28406256178
484,0.0
533,0.0
2,8, 1, 8, 0, 1, 0.00,60.00,Sunday
128,41778.000000000044
202,188789.28406256178
484,0.0
533,0.0
2,8, 1, 8, 0, 2, 0.00,60.00,Sunday
128,41778.000000000044
202,188789.28406256178
484,0.0
533,0.0
2,8, 1, 8, 0, 3, 0.00,60.00,Sunday
128,41778.000000000044
202,188789.28406256178
484,0.0
533,0.0
2,8, 1, 8, 0, 4, 0.00,60.00,Sunday
128,41778.000000000044
202,188789.28406256178
484,0.0
533,0.0
2,8, 1, 8, 0, 5, 0.00,60.00,Sunday
128,41778.000000000044
202,188789.28406256178
484,0.0
533,0.0
2,8, 1, 8, 0, 6, 0.00,60.00,Sunday
128,41778.000000000044
202,188789.28406256178
484,0.0
533,0.0
2,8, 1, 8, 0, 7, 0.00,60.00,Sunday
128,36026.23891680004
202,235710.85172580025
484,0.0
533,0.0
2,8, 1, 8, 0, 8, 0.00,60.00,Sunday
128,36026.23891680004
202,235710.85172580025
484,0.0
533,0.0
2,8, 1, 8, 0, 9, 0.00,60.00,Sunday
128,36026.23891680004
202,235710.85172580025
484,0.0
533,0.0
2,8, 1, 8, 0,10, 0.00,60.00,Sunday
128,36026.23891680004
202,235710.85172580025
484,0.0
533,0.0
2,8, 1, 8, 0,11, 0.00,60.00,Sunday
128,36026.23891680004
202,235710.85172580025
484,0.0
533,0.0
2,8, 1, 8, 0,12, 0.00,60.00,Sunday
128,36026.23891680004
202,235710.85172580025
484,0.0
533,0.0
2,8, 1, 8, 0,13, 0.00,60.00,Sunday
128,36026.23891680004
202,235710.85172580025
484,0.0
533,0.0
2,8, 1, 8, 0,14, 0.00,60.00,Sunday
128,36026.23891680004
202,235710.85172580025
484,0.0
533,0.0
2,8, 1, 8, 0,15, 0.00,60.00,Sunday
128,36026.23891680004
202,235710.85172580025
484,0.0
533,0.0
2,8, 1, 8, 0,16, 0.00,60.00,Sunday
128,36026.23891680004
202,235710.85172580025
484,0.0
533,0.0
2,8, 1, 8, 0,17, 0.00,60.00,Sunday
128,36026.23891680004
202,235710.85172580025
484,0.0
533,0.0
2,8, 1, 8, 0,18, 0.00,60.00,Sunday
128,36026.23891680004
202,235710.85172580025
484,0.0
533,0.0
2,8, 1, 8, 0,19, 0.00,60.00,Sunday
128,41778.000000000044
202,188789.28406256178
484,0.0
533,0.0
2,8, 1, 8, 0,20, 0.00,60.00,Sunday
128,41778.000000000044
202,188789.28406256178
484,0.0
533,0.0
2,8, 1, 8, 0,21, 0.00,60.00,Sunday
128,41778.000000000044
202,188789.28406256178
484,0.0
533,0.0
2,8, 1, 8, 0,22, 0.00,60.00,Sunday
128,41778.000000000044
202,188789.28406256178
484,0.0
533,0.0
2,8, 1, 8, 0,23, 0.00,60.00,Sunday
128,41778.000000000044
202,188789.28406256178
484,0.0
533,0.0
2,8, 1, 8, 0,24, 0.00,60.00,Sunday
128,41778.000000000044
202,188789.28406256178
484,0.0
533,0.0
2,9, 1, 9, 0, 1, 0.00,60.00,Monday
128,41778.000000000044
202,251719.04541674902
484,0.0
533,0.0
2,9, 1, 9, 0, 2, 0.00,60.00,Monday
128,41778.000000000044
202,251719.04541674902
484,0.0
533,0.0
2,9, 1, 9, 0, 3, 0.00,60.00,Monday
128,41778.000000000044
202,251719.04541674902
484,0.0
533,0.0
2,9, 1, 9, 0, 4, 0.00,60.00,Monday
128,41778.000000000044
202,251719.04541674902
484,0.0
533,0.0
2,9, 1, 9, 0, 5, 0.00,60.00,Monday
128,41778.000000000044
202,251719.04541674902
484,0.0
533,0.0
2,9, 1, 9, 0, 6, 0.00,60.00,Monday
128,83556.00000000009
202,251719.04541674902
484,0.0
533,0.0
2,9, 1, 9, 0, 7, 0.00,60.00,Monday
128,72052.47783360007
202,311901.9110602563
484,687207.437111768
533,0.0
2,9, 1, 9, 0, 8, 0.00,60.00,Monday
128,216157.43350080022
202,311901.9110602563
484,821769.1034207129
533,0.0
2,9, 1, 9, 0, 9, 0.00,60.00,Monday
128,648472.3005024007
202,701779.2998855767
484,16329.612263481551
533,0.0
2,9, 1, 9, 0,10, 0.00,60.00,Monday
128,648472.3005024007
202,701779.2998855767
484,0.0
533,0.0
2,9, 1, 9, 0,11, 0.00,60.00,Monday
128,648472.3005024007
202,701779.2998855767
484,0.0
533,0.0
2,9, 1, 9, 0,12, 0.00,60.00,Monday
128,648472.3005024007
202,701779.2998855767
484,0.0
533,0.0
2,9, 1, 9, 0,13, 0.00,60.00,Monday
128,648472.3005024007
202,623803.8221205126
484,0.0
533,0.0
2,9, 1, 9, 0,14, 0.00,60.00,Monday
128,648472.3005024007
202,701779.2998855767
484,0.0
533,288770.8835212685
2,9, 1, 9, 0,15, 0.00,60.00,Monday
128,648472.3005024007
202,701779.2998855767
484,0.0
533,388290.32915840653
2,9, 1, 9, 0,16, 0.00,60.00,Monday
128,648472.3005024007
202,701779.2998855767
484,0.0
533,42709.69670832315
2,9, 1, 9, 0,17, 0.00,60.00,Monday
128,648472.3005024007
202,701779.2998855767
484,0.0
533,0.0
2,9, 1, 9, 0,18, 0.00,60.00,Monday
128,360262.38916800043
202,389877.38882532035
484,0.0
533,0.0
2,9, 1, 9, 0,19, 0.00,60.00,Monday
128,216157.43350080022
202,311901.9110602563
484,0.0
533,0.0
2,9, 1, 9, 0,20, 0.00,60.00,Monday
128,216157.43350080022
202,311901.9110602563
484,0.0
533,0.0
2,9, 1, 9, 0,21, 0.00,60.00,Monday
128,144104.95566720015
202,311901.9110602563
484,0.0
533,0.0
2,9, 1, 9, 0,22, 0.00,60.00,Monday
128,144104.95566720015
202,311901.9110602563
484,0.0
533,0.0
2,9, 1, 9, 0,23, 0.00,60.00,Monday
128,72052.47783360007
202,311901.9110602563
484,0.0
533,0.0
2,9, 1, 9, 0,24, 0.00,60.00,Monday
128,36026.23891680004
202,311901.9110602563
484,0.0
533,0.0
2,10, 1,10, 0, 1, 0.00,60.00,Tuesday
128,41778.000000000044
202,251719.04541674902
484,0.0
533,0.0
2,10, 1,10, 0, 2, 0.00,60.00,Tuesday
128,41778.000000000044
202,251719.04541674902
484,0.0
533,0.0
2,10, 1,10, 0, 3, 0.00,60.00,Tuesday
128,41778.000000000044
202,251719.04541674902
484,0.0
533,0.0
2,10, 1,10, 0, 4, 0.00,60.00,Tuesday
128,41778.000000000044
202,251719.04541674902
484,0.0
533,0.0
2,10, 1,10, 0, 5, 0.00,60.00,Tuesday
128,41778.000000000044
202,251719.04541674902
484,0.0
533,0.0
2,10, 1,10, 0, 6, 0.00,60.00,Tuesday
128,83556.00000000009
202,251719.04541674902
484,0.0
533,0.0
2,10, 1,10, 0, 7, 0.00,60.00,Tuesday
128,72052.47783360007
202,311901.9110602563
484,438909.4609756801
533,0.0
2,10, 1,10, 0, 8, 0.00,60.00,Tuesday
128,216157.43350080022
202,311901.9110602563
484,550134.3344803771
533,0.0
2,10, 1,10, 0, 9, 0.00,60.00,Tuesday
128,648472.3005024007
202,701779.2998855767
484,0.0
533,0.0
2,10, 1,10, 0,10, 0.00,60.00,Tuesday
128,648472.3005024007
202,701779.2998855767
484,0.0
533,0.0
2,10, 1,10, 0,11, 0.00,60.00,Tuesday
128,648472.3005024007
202,701779.2998855767
484,0.0
533,0.0
2,10, 1,10, 0,12, 0.00,60.00,Tuesday
128,648472.3005024007
202,701779.2998855767
484,0.0
533,0.0
2,10, 1,10, 0,13, 0.00,60.00,Tuesday
128,648472.3005024007
202,623803.8221205126
484,0.0
533,0.0
2,10, 1,10, 0,14, 0.00,60.00,Tuesday
128,648472.3005024007
202,701779.2998855767
484,0.0
533,0.0
2,10, 1,10, 0,15, 0.00,60.00,Tuesday
128,648472.3005024007
202,701779.2998855767
484,0.0
533,0.0
2,10, 1,10, 0,16, 0.00,60.00,Tuesday
128,648472.3005024007
202,701779.2998855767
484,0.0
533,0.0
2,10, 1,10, 0,17, 0.00,60.00,Tuesday
128,648472.3005024007
202,701779.2998855767
484,0.0
533,0.0
2,10, 1,10, 0,18, 0.00,60.00,Tuesday
128,360262.38916800043
202,389877.38882532035
484,0.0
533,0.0
2,10, 1,10, 0,19, 0.00,60.00,Tuesday
128,216157.43350080022
202,311901.9110602563
484,0.0
533,0.0
2,10, 1,10, 0,20, 0.00,60.00,Tuesday
128,216157.43350080022
202,311901.9110602563
484,0.0
533,0.0
2,10, 1,10, 0,21, 0.00,60.00,Tuesday
128,144104.95566720015
202,311901.9110602563
484,0.0
533,0.0
2,10, 1,10, 0,22, 0.00,60.00,Tuesday
128,144104.95566720015
202,311901.9110602563
484,0.0
533,0.0
2,10, 1,10, 0,23, 0.00,60.00,Tuesday
128,72052.47783360007
202,311901.9110602563
484,0.0
533,0.0
2,10, 1,10, 0,24, 0.00,60.00,Tuesday
128,36026.23891680004
202,311901.9110602563
484,0.0
533,0.0
2,11, 1,11, 0, 1, 0.00,60.00,Wednesday
128,41778.000000000044
202,251719.04541674902
484,0.0
533,0.0
2,11, 1,11, 0, 2, 0.00,60.00,Wednesday
128,41778.000000000044
202,251719.04541674902
484,0.0
533,0.0
2,11, 1,11, 0, 3, 0.00,60.00,Wednesday
128,41778.000000000044
202,251719.04541674902
484,0.0
533,0.0
2,11, 1,11, 0, 4, 0.00,60.00,Wednesday
128,41778.000000000044
202,251719.04541674902
484,0.0
533,0.0
2,11, 1,11, 0, 5, 0.00,60.00,Wednesday
128,41778.000000000044
202,251719.04541674902
484,0.0
533,0.0
2,11, 1,11, 0, 6, 0.00,60.00,Wednesday
128,83556.00000000009
202,251719.04541674902
484,0.0
533,0.0
2,11, 1,11, 0, 7, 0.00,60.00,Wednesday
128,72052.47783360007
202,311901.9110602563
484,4132.680657178666
533,0.0
2,11, 1,11, 0, 8, 0.00,60.00,Wednesday
128,216157.43350080022
202,311901.9110602563
484,59190.715714749786
533,0.0
2,11, 1,11, 0, 9, 0.00,60.00,Wednesday
128,648472.3005024007
202,701779.2998855767
484,0.0
533,0.0
2,11, 1,11, 0,10, 0.00,60.00,Wednesday
128,648472.3005024007
202,701779.2998855767
484,0.0
533,0.0
2,11, 1,11, 0,11, 0.00,60.00,Wednesday
128,648472.3005024007
202,701779.2998855767
484,0.0
533,0.0
2,11, 1,11, 0,12, 0.00,60.00,Wednesday
128,648472.3005024007
202,701779.2998855767
484,0.0
533,0.0
2,11, 1,11, 0,13, 0.00,60.00,Wednesday
128,648472.3005024007
202,623803.8221205126
484,0.0
533,0.0
2,11, 1,11, 0,14, 0.00,60.00,Wednesday
128,648472.3005024007
202,701779.2998855767
484,0.0
533,0.0
2,11, 1,11, 0,15, 0.00,60.00,Wednesday
128,648472.3005024007
202,701779.2998855767
484,0.0
533,0.0
2,11, 1,11, 0,16, 0.00,60.00,Wednesday
128,648472.3005024007
202,701779.2998855767
484,0.0
533,0.0
2,11, 1,11, 0,17, 0.00,60.00,Wednesday
128,648472.3005024007
202,701779.2998855767
484,0.0
533,0.0
2,11, 1,11, 0,18, 0.00,60.00,Wednesday
128,360262.38916800043
202,389877.38882532035
484,0.0
533,0.0
2,11, 1,11, 0,19, 0.00,60.00,Wednesday
128,216157.43350080022
202,311901.9110602563
484,0.0
533,0.0
2,11, 1,11, 0,20, 0.00,60.00,Wednesday
128,216157.43350080022
202,311901.9110602563
484,0.0
533,0.0
2,11, 1,11, 0,21, 0.00,60.00,Wednesday
128,144104.95566720015
202,311901.9110602563
484,0.0
533,0.0
2,11, 1,11, 0,22, 0.00,60.00,Wednesday
128,144104.95566720015
202,311901.9110602563
484,0.0
533,0.0
2,11, 1,11, 0,23, 0.00,60.00,Wednesday
128,72052.47783360007
202,311901.9110602563
484,0.0
533,0.0
2,11, 1,11, 0,24, 0.00,60.00,Wednesday
128,36026.23891680004
202,311901.9110602563
484,0.0
533,0.0
2,12, 1,12, 0, 1, 0.00,60.00,Thursday
128,41778.000000000044
202,251719.04541674902
484,0.0
533,0.0
2,12, 1,12, 0, 2, 0.00,60.00,Thursday
128,41778.000000000044
202,251719.04541674902
484,0.0
533,0.0
2,12, 1,12, 0, 3, 0.00,60.00,Thursday
128,41778.000000000044
202,251719.04541674902
484,0.0
533,0.0
2,12, 1,12, 0, 4, 0.00,60.00,Thursday
128,41778.000000000044
202,251719.04541674902
484,0.0
533,0.0
2,12, 1,12, 0, 5, 0.00,60.00,Thursday
128,41778.000000000044
202,251719.04541674902
484,0.0
533,0.0
2,12, 1,12, 0, 6, 0.00,60.00,Thursday
128,83556.00000000009
202,251719.04541674902
484,0.0
533,0.0
2,12, 1,12, 0, 7, 0.00,60.00,Thursday
128,72052.47783360007
202,311901.9110602563
484,0.0
533,0.0
2,12, 1,12, 0, 8, 0.00,60.00,Thursday
128,216157.43350080022
202,311901.9110602563
484,0.0
533,0.0
2,12, 1,12, 0, 9, 0.00,60.00,Thursday
128,648472.3005024007
202,701779.2998855767
484,0.0
533,0.0
2,12, 1,12, 0,10, 0.00,60.00,Thursday
128,648472.3005024007
202,701779.2998855767
484,0.0
533,0.0
2,12, 1,12, 0,11, 0.00,60.00,Thursday
128,648472.3005024007
202,701779.2998855767
484,0.0
533,0.0
2,12, 1,12, 0,12, 0.00,60.00,Thursday
128,648472.3005024007
202,701779.2998855767
484,0.0
533,0.0
2,12, 1,12, 0,13, 0.00,60.00,Thursday
128,648472.3005024007
202,623803.8221205126
484,0.0
533,0.0
2,12, 1,12, 0,14, 0.00,60.00,Thursday
128,648472.3005024007
202,701779.2998855767
484,0.0
533,31648.53515811141
2,12, 1,12, 0,15, 0.00,60.00,Thursday
128,648472.3005024007
202,701779.2998855767
484,0.0
533,149405.50563812858
2,12, 1,12, 0,16, 0.00,60.00,Thursday
128,648472.3005024007
202,701779.2998855767
484,0.0
533,239069.36198719335
2,12, 1,12, 0,17, 0.00,60.00,Thursday
128,648472.3005024007
202,701779.2998855767
484,0.0
533,196459.76615725714
2,12, 1,12, 0,18, 0.00,60.00,Thursday
128,360262.38916800043
202,389877.38882532035
484,0.0
533,0.0
2,12, 1,12, 0,19, 0.00,60.00,Thursday
128,216157.43350080022
202,311901.9110602563
484,0.0
533,0.0
2,12, 1,12, 0,20, 0.00,60.00,Thursday
128,216157.43350080022
202,311901.9110602563
484,0.0
533,0.0
2,12, 1,12, 0,21, 0.00,60.00,Thursday
128,144104.95566720015
202,311901.9110602563
484,0.0
533,0.0
2,12, 1,12, 0,22, 0.00,60.00,Thursday
128,144104.95566720015
202,311901.9110602563
484,0.0
533,0.0
2,12, 1,12, 0,23, 0.00,60.00,Thursday
128,72052.47783360007
202,311901.9110602563
484,0.0
533,0.0
2,12, 1,12, 0,24, 0.00,60.00,Thursday
128,36026.23891680004
202,311901.9110602563
484,0.0
533,0.0
2,13, 1,13, 0, 1, 0.00,60.00,Friday
128,41778.000000000044
202,251719.04541674902
484,0.0
533,0.0
2,13, 1,13, 0, 2, 0.00,60.00,Friday
128,41778.000000000044
202,251719.04541674902
484,0.0
533,0.0