Program Version,EnergyPlus, Version 23.2.0-7636e6b3e9, YMD=2024.06.17 20:26
1,5,Environment Title[],Latitude[deg],Longitude[deg],Time Zone[],Elevation[m]
2,8,Day of Simulation[],Month[],Day of Month[],DST Indicator[1=yes 0=no],Hour[],StartMinute[],EndMinute[],DayType
3,5,Cumulative Day of Simulation[],Month[],Day of Month[],DST Indicator[1=yes 0=no],DayType  ! When Daily Report Variables Requested
4,2,Cumulative Days of Simulation[],Month[]  ! When Monthly Report Variables Requested
5,1,Cumulative Days of Simulation[] ! When Run Period Report Variables Requested
6,1,Calendar Year of Simulation[] ! When Annual Report Variables Requested
128,1,ROOM_2_D67BD6DB,Zone Lights Electricity Energy [J] !Hourly
202,1,ROOM_2_D67BD6DB,Zone Electric Equipment Electricity Energy [J] !Hourly
484,1,ROOM_2_D67BD6DB IDEAL LOADS AIR SYSTEM,Zone Ideal Loads Supply Air Total Heating Energy [J] !Hourly
533,1,ROOM_2_D67BD6DB IDEAL LOADS AIR SYSTEM,Zone Ideal Loads Supply Air Total Cooling Energy [J] !Hourly
End of Data Dictionary
1,RUN PERIOD 1,  22.55, 114.10,   8.00,  18.00
2,1, 1, 1, 0, 1, 0.00,60.00,Sunday
128,41778.000000000044
202,188789.28406256178
484,0.0
533,0.0
2,1, 1, 1, 0, 2, 0.00,60.00,Sunday
128,41778.000000000044
202,188789.28406256178
484,0.0
533,0.0
2,1, 1, 1, 0, 3, 0.00,60.00,Sunday
128,41778.000000000044
202,188789.28406256178
484,0.0
533,0.0
2,1, 1, 1, 0, 4, 0.00,60.00,Sunday
128,41778.000000000044
202,188789.28406256178
484,0.0
533,0.0
2,1, 1, 1, 0, 5, 0.00,60.00,Sunday
128,41778.000000000044
202,188789.28406256178
484,0.0
533,0.0
2,1, 1, 1, 0, 6, 0.00,60.00,Sunday
128,41778.000000000044
202,188789.28406256178
484,0.0
533,0.0
2,1, 1, 1, 0, 7, 0.00,60.00,Sunday
128,36026.23891680004
202,235710.85172580025
484,0.0
533,0.0
2,1, 1, 1, 0, 8, 0.00,60.00,Sunday
128,36026.23891680004
202,235710.85172580025
484,0.0
533,0.0
2,1, 1, 1, 0, 9, 0.00,60.00,Sunday
128,36026.23891680004
202,235710.85172580025
484,0.0
533,0.0
2,1, 1, 1, 0,10, 0.00,60.00,Sunday
128,36026.23891680004
202,235710.85172580025
484,0.0
533,0.0
2,1, 1, 1, 0,11, 0.00,60.00,Sunday
128,36026.23891680004
202,235710.85172580025
484,0.0
533,0.0
2,1, 1, 1, 0,12, 0.00,60.00,Sunday
128,36026.23891680004
202,235710.85172580025
484,0.0
533,0.0
2,1, 1, 1, 0,13, 0.00,60.00,Sunday
128,36026.23891680004
202,235710.85172580025
484,0.0
533,0.0
2,1, 1, 1, 0,14, 0.00,60.00,Sunday
128,36026.23891680004
202,235710.85172580025
484,0.0
533,0.0
2,1, 1, 1, 0,15, 0.00,60.00,Sunday
128,36026.23891680004
202,235710.85172580025
484,0.0
533,0.0
2,1, 1, 1, 0,16, 0.00,60.00,Sunday
128,36026.23891680004
202,235710.85172580025
484,0.0
533,0.0
2,1, 1, 1, 0,17, 0.00,60.00,Sunday
128,36026.23891680004
202,235710.85172580025
484,0.0
533,0.0
2,1, 1, 1, 0,18, 0.00,60.00,Sunday
128,36026.23891680004
202,235710.85172580025
484,0.0
533,0.0
2,1, 1, 1, 0,19, 0.00,60.00,Sunday
128,41778.000000000044
202,188789.28406256178
484,0.0
533,0.0
2,1, 1, 1, 0,20, 0.00,60.00,Sunday
128,41778.000000000044
202,188789.28406256178
484,0.0
533,0.0
2,1, 1, 1, 0,21, 0.00,60.00,Sunday
128,41778.000000000044
202,188789.28406256178
484,0.0
533,0.0
2,1, 1, 1, 0,22, 0.00,60.00,Sunday
128,41778.000000000044
202,188789.28406256178
484,0.0
533,0.0
2,1, 1, 1, 0,23, 0.00,60.00,Sunday
128,41778.000000000044
202,188789.28406256178
484,0.0
533,0.0
2,1, 1, 1, 0,24, 0.00,60.00,Sunday
128,41778.000000000044
202,188789.28406256178
484,0.0
533,0.0
2,2, 1, 2, 0, 1, 0.00,60.00,Monday
128,41778.000000000044
202,251719.04541674902
484,0.0
533,0.0
2,2, 1, 2, 0, 2, 0.00,60.00,Monday
128,41778.000000000044
202,251719.04541674902
484,0.0
533,0.0
2,2, 1, 2, 0, 3, 0.00,60.00,Monday
128,41778.000000000044
202,251719.04541674902
484,0.0
533,0.0
2,2, 1, 2, 0, 4, 0.00,60.00,Monday
128,41778.000000000044
202,251719.04541674902
484,0.0
533,0.0
2,2, 1, 2, 0, 5, 0.00,60.00,Monday
128,41778.000000000044
202,251719.04541674902
484,0.0
533,0.0
2,2, 1, 2, 0, 6, 0.00,60.00,Monday
128,83556.00000000009
202,251719.04541674902
484,0.0
533,0.0
2,2, 1, 2, 0, 7, 0.00,60.00,Monday
128,72052.47783360007
202,311901.9110602563
484,262186.5967342516
533,0.0
2,2, 1, 2, 0, 8, 0.00,60.00,Monday
128,216157.43350080022
202,311901.9110602563
484,580930.1189197452
533,0.0
2,2, 1, 2, 0, 9, 0.00,60.00,Monday
128,648472.3005024007
202,701779.2998855767
484,5577.562032958456
533,0.0
2,2, 1, 2, 0,10, 0.00,60.00,Monday
128,648472.3005024007
202,701779.2998855767
484,0.0
533,0.0
2,2, 1, 2, 0,11, 0.00,60.00,Monday
128,648472.3005024007
202,701779.2998855767
484,0.0
533,0.0
2,2, 1, 2, 0,12, 0.00,60.00,Monday
128,648472.3005024007
202,701779.2998855767
484,0.0
533,0.0
2,2, 1, 2, 0,13, 0.00,60.00,Monday
128,648472.3005024007
202,623803.8221205126
484,0.0
533,0.0
2,2, 1, 2, 0,14, 0.00,60.00,Monday
128,648472.3005024007
202,701779.2998855767
484,0.0
533,0.0
2,2, 1, 2, 0,15, 0.00,60.00,Monday
128,648472.3005024007
202,701779.2998855767
484,0.0
533,0.0
2,2, 1, 2, 0,16, 0.00,60.00,Monday
128,648472.3005024007
202,701779.2998855767
484,0.0
533,0.0
2,2, 1, 2, 0,17, 0.00,60.00,Monday
128,648472.3005024007
202,701779.2998855767
484,0.0
533,0.0
2,2, 1, 2, 0,18, 0.00,60.00,Monday
128,360262.38916800043
202,389877.38882532035
484,0.0
533,0.0
2,2, 1, 2, 0,19, 0.00,60.00,Monday
128,216157.43350080022
202,311901.9110602563
484,0.0
533,0.0
2,2, 1, 2, 0,20, 0.00,60.00,Monday
128,216157.43350080022
202,311901.9110602563
484,0.0
533,0.0
2,2, 1, 2, 0,21, 0.00,60.00,Monday
128,144104.95566720015
202,311901.9110602563
484,0.0
533,0.0
2,2, 1, 2, 0,22, 0.00,60.00,Monday
128,144104.95566720015
202,311901.9110602563
484,0.0
533,0.0
2,2, 1, 2, 0,23, 0.00,60.00,Monday
128,72052.47783360007
202,311901.9110602563
484,0.0
533,0.0
2,2, 1, 2, 0,24, 0.00,60.00,Monday
128,36026.23891680004
202,311901.9110602563
484,0.0
533,0.0
2,3, 1, 3, 0, 1, 0.00,60.00,Tuesday
128,41778.000000000044
202,251719.04541674902
484,0.0
533,0.0
2,3, 1, 3, 0, 2, 0.00,60.00,Tuesday
128,41778.000000000044
202,251719.04541674902
484,0.0
533,0.0
2,3, 1, 3, 0, 3, 0.00,60.00,Tuesday
128,41778.000000000044
202,251719.04541674902
484,0.0
533,0.0
2,3, 1, 3, 0, 4, 0.00,60.00,Tuesday
128,41778.000000000044
202,251719.04541674902
484,0.0
533,0.0
2,3, 1, 3, 0, 5, 0.00,60.00,Tuesday
128,41778.000000000044
202,251719.04541674902
484,0.0
533,0.0
2,3, 1, 3, 0, 6, 0.00,60.00,Tuesday
128,83556.00000000009
202,251719.04541674902
484,0.0
533,0.0
2,3, 1, 3, 0, 7, 0.00,60.00,Tuesday
128,72052.47783360007
202,311901.9110602563
484,52766.3994840557
533,0.0
2,3, 1, 3, 0, 8, 0.00,60.00,Tuesday
128,216157.43350080022
202,311901.9110602563
484,393202.10091195314
533,0.0
2,3, 1, 3, 0, 9, 0.00,60.00,Tuesday
128,648472.3005024007
202,701779.2998855767
484,0.0
533,0.0
2,3, 1, 3, 0,10, 0.00,60.00,Tuesday
128,648472.3005024007
202,701779.2998855767
484,0.0
533,0.0
2,3, 1, 3, 0,11, 0.00,60.00,Tuesday
128,648472.3005024007
202,701779.2998855767
484,0.0
533,0.0
2,3, 1, 3, 0,12, 0.00,60.00,Tuesday
128,648472.3005024007
202,701779.2998855767
484,0.0
533,0.0
2,3, 1, 3, 0,13, 0.00,60.00,Tuesday
128,648472.3005024007
202,623803.8221205126
484,0.0
533,0.0
2,3, 1, 3, 0,14, 0.00,60.00,Tuesday
128,648472.3005024007
202,701779.2998855767
484,0.0
533,0.0
2,3, 1, 3, 0,15, 0.00,60.00,Tuesday
128,648472.3005024007
202,701779.2998855767
484,0.0
533,0.0
2,3, 1, 3, 0,16, 0.00,60.00,Tuesday
128,648472.3005024007
202,701779.2998855767
484,0.0
533,0.0
2,3, 1, 3, 0,17, 0.00,60.00,Tuesday
128,648472.3005024007
202,701779.2998855767
484,0.0
533,0.0
2,3, 1, 3, 0,18, 0.00,60.00,Tuesday
128,360262.38916800043
202,389877.38882532035
484,0.0
533,0.0
2,3, 1, 3, 0,19, 0.00,60.00,Tuesday
128,216157.43350080022
202,311901.9110602563
484,0.0
533,0.0
2,3, 1, 3, 0,20, 0.00,60.00,Tuesday
128,216157.43350080022
202,311901.9110602563
484,0.0
533,0.0
2,3, 1, 3, 0,21, 0.00,60.00,Tuesday
128,144104.95566720015
202,311901.9110602563
484,0.0
533,0.0
2,3, 1, 3, 0,22, 0.00,60.00,Tuesday
128,144104.95566720015
202,311901.9110602563
484,0.0
533,0.0
2,3, 1, 3, 0,23, 0.00,60.00,Tuesday
128,72052.47783360007
202,311901.9110602563
484,0.0
533,0.0
2,3, 1, 3, 0,24, 0.00,60.00,Tuesday
128,36026.23891680004
202,311901.9110602563
484,0.0
533,0.0
2,4, 1, 4, 0, 1, 0.00,60.00,Wednesday
128,41778.000000000044
202,251719.04541674902
484,0.0
533,0.0
2,4, 1, 4, 0, 2, 0.00,60.00,Wednesday
128,41778.000000000044
202,251719.04541674902
484,0.0
533,0.0
2,4, 1, 4, 0, 3, 0.00,60.00,Wednesday
128,41778.000000000044
202,251719.04541674902
484,0.0
533,0.0
2,4, 1, 4, 0, 4, 0.00,60.00,Wednesday
128,41778.000000000044
202,251719.04541674902
484,0.0
533,0.0
2,4, 1, 4, 0, 5, 0.00,60.00,Wednesday
128,41778.000000000044
202,251719.04541674902
484,0.0
533,0.0
2,4, 1, 4, 0, 6, 0.00,60.00,Wednesday
128,83556.00000000009
202,251719.04541674902
484,0.0
533,0.0
2,4, 1, 4, 0, 7, 0.00,60.00,Wednesday
128,72052.47783360007
202,311901.9110602563
484,0.0
533,0.0
2,4, 1, 4, 0, 8, 0.00,60.00,Wednesday
128,216157.43350080022
202,311901.9110602563
484,183055.71670378995
533,0.0
2,4, 1, 4, 0, 9, 0.00,60.00,Wednesday
128,648472.3005024007
202,701779.2998855767
484,0.0
533,0.0
2,4, 1, 4, 0,10, 0.00,60.00,Wednesday
128,648472.3005024007
202,701779.2998855767
484,0.0
533,0.0
2,4, 1, 4, 0,11, 0.00,60.00,Wednesday
128,648472.3005024007
202,701779.2998855767
484,0.0
533,0.0
2,4, 1, 4, 0,12, 0.00,60.00,Wednesday
128,648472.3005024007
202,701779.2998855767
484,0.0
533,0.0
2,4, 1, 4, 0,13, 0.00,60.00,Wednesday
128,648472.3005024007
202,623803.8221205126
484,0.0
533,0.0
2,4, 1, 4, 0,14, 0.00,60.00,Wednesday
128,648472.3005024007
202,701779.2998855767
484,0.0
533,0.0
2,4, 1, 4, 0,15, 0.00,60.00,Wednesday
128,648472.3005024007
202,701779.2998855767
484,0.0
533,0.0
2,4, 1, 4, 0,16, 0.00,60.00,Wednesday
128,648472.3005024007
202,701779.2998855767
484,0.0
533,0.0
2,4, 1, 4, 0,17, 0.00,60.00,Wednesday
128,648472.3005024007
202,701779.2998855767
484,0.0
533,0.0
2,4, 1, 4, 0,18, 0.00,60.00,Wednesday
128,360262.38916800043
202,389877.38882532035
484,0.0
533,0.0
2,4, 1, 4, 0,19, 0.00,60.00,Wednesday
128,216157.43350080022
202,311901.9110602563
484,0.0
533,0.0
2,4, 1, 4, 0,20, 0.00,60.00,Wednesday
128,216157.43350080022
202,311901.9110602563
484,0.0
533,0.0
2,4, 1, 4, 0,21, 0.00,60.00,Wednesday
128,144104.95566720015
202,311901.9110602563
484,0.0
533,0.0
2,4, 1, 4, 0,22, 0.00,60.00,Wednesday
128,144104.95566720015
202,311901.9110602563
484,0.0
533,0.0
2,4, 1, 4, 0,23, 0.00,60.00,Wednesday
128,72052.47783360007
202,311901.9110602563
484,0.0
533,0.0
2,4, 1, 4, 0,24, 0.00,60.00,Wednesday
128,36026.23891680004
202,311901.9110602563
484,0.0
533,0.0
2,5, 1, 5, 0, 1, 0.00,60.00,Thursday
128,41778.000000000044
202,251719.04541674902
484,0.0
533,0.0
2,5, 1, 5, 0, 2, 0.00,60.00,Thursday
128,41778.000000000044
202,251719.04541674902
484,0.0
533,0.0
2,5, 1, 5, 0, 3, 0.00,60.00,Thursday
128,41778.000000000044
202,251719.04541674902
484,0.0
533,0.0
2,5, 1, 5, 0, 4, 0.00,60.00,Thursday
128,41778.000000000044
202,251719.04541674902
484,0.0
533,0.0
2,5, 1, 5, 0, 5, 0.00,60.00,Thursday
128,41778.000000000044
202,251719.04541674902
484,0.0
533,0.0
2,5, 1, 5, 0, 6, 0.00,60.00,Thursday
128,83556.00000000009
202,251719.04541674902
484,0.0
533,0.0
2,5, 1, 5, 0, 7, 0.00,60.00,Thursday
128,72052.47783360007
202,311901.9110602563
484,264266.64602717245
533,0.0
2,5, 1, 5, 0, 8, 0.00,60.00,Thursday
128,216157.43350080022
202,311901.9110602563
484,579603.9581986533
533,0.0
2,5, 1, 5, 0, 9, 0.00,60.00,Thursday
128,648472.3005024007
202,701779.2998855767
484,6194.266204028622
533,0.0
2,5, 1, 5, 0,10, 0.00,60.00,Thursday
128,648472.3005024007
202,701779.2998855767
484,0.0
533,0.0
2,5, 1, 5, 0,11, 0.00,60.00,Thursday
128,648472.3005024007
202,701779.2998855767
484,0.0
533,0.0
2,5, 1, 5, 0,12, 0.00,60.00,Thursday
128,648472.3005024007
202,701779.2998855767
484,0.0
533,0.0
2,5, 1, 5, 0,13, 0.00,60.00,Thursday
128,648472.3005024007
202,623803.8221205126
484,0.0
533,0.0
2,5, 1, 5, 0,14, 0.00,60.00,Thursday
128,648472.3005024007
202,701779.2998855767
484,0.0
533,0.0
2,5, 1, 5, 0,15, 0.00,60.00,Thursday
128,648472.3005024007
202,701779.2998855767
484,0.0
533,0.0
2,5, 1, 5, 0,16, 0.00,60.00,Thursday
128,648472.3005024007
202,701779.2998855767
484,0.0
533,0.0
2,5, 1, 5, 0,17, 0.00,60.00,Thursday
128,648472.3005024007
202,701779.2998855767
484,0.0
533,0.0
2,5, 1, 5, 0,18, 0.00,60.00,Thursday
128,360262.38916800043
202,389877.38882532035
484,0.0
533,0.0
2,5, 1, 5, 0,19, 0.00,60.00,Thursday
128,216157.43350080022
202,311901.9110602563
484,0.0
533,0.0
2,5, 1, 5, 0,20, 0.00,60.00,Thursday
128,216157.43350080022
202,311901.9110602563
484,5581.893597510536
533,0.0
2,5, 1, 5, 0,21, 0.00,60.00,Thursday
128,144104.95566720015
202,311901.9110602563
484,61140.12276703355
533,0.0
2,5, 1, 5, 0,22, 0.00,60.00,Thursday
128,144104.95566720015
202,311901.9110602563
484,95430.37970299588
533,0.0
2,5, 1, 5, 0,23, 0.00,60.00,Thursday
128,72052.47783360007
202,311901.9110602563
484,0.0
533,0.0
2,5, 1, 5, 0,24, 0.00,60.00,Thursday
128,36026.23891680004
202,311901.9110602563
484,0.0
533,0.0
2,6, 1, 6, 0, 1, 0.00,60.00,Friday
128,41778.000000000044
202,251719.04541674902
484,0.0
533,0.0
2,6, 1, 6, 0, 2, 0.00,60.00,Friday
128,41778.000000000044
202,251719.04541674902
484,0.0
533,0.0
2,6, 1, 6, 0, 3, 0.00,60.00,Friday
128,41778.000000000044
202,251719.04541674902
484,0.0
533,0.0
2,6, 1, 6, 0, 4, 0.00,60.00,Friday
128,41778.000000000044
202,251719.04541674902
484,0.0
533,0.0
2,6, 1, 6, 0, 5, 0.00,60.00,Friday
128,41778.000000000044
202,251719.04541674902
484,0.0
533,0.0
2,6, 1, 6, 0, 6, 0.00,60.00,Friday
128,83556.00000000009
202,251719.04541674902
484,0.0
533,0.0
2,6, 1, 6, 0, 7, 0.00,60.00,Friday
128,72052.47783360007
202,311901.9110602563
484,158507.6284873767
533,0.0
2,6, 1, 6, 0, 8, 0.00,60.00,Friday
128,216157.43350080022
202,311901.9110602563
484,528882.2913439462
533,0.0
2,6, 1, 6, 0, 9, 0.00,60.00,Friday
128,648472.3005024007
202,701779.2998855767
484,0.0
533,0.0
2,6, 1, 6, 0,10, 0.00,60.00,Friday
128,648472.3005024007
202,701779.2998855767
484,0.0
533,0.0
2,6, 1, 6, 0,11, 0.00,60.00,Friday
128,648472.3005024007
202,701779.2998855767
484,0.0
533,0.0
2,6, 1, 6, 0,12, 0.00,60.00,Friday
128,648472.3005024007
202,701779.2998855767
484,0.0
533,0.0
2,6, 1, 6, 0,13, 0.00,60.00,Friday
128,648472.3005024007
202,623803.8221205126
484,0.0
533,0.0
2,6, 1, 6, 0,14, 0.00,60.00,Friday
128,648472.3005024007
202,701779.2998855767
484,0.0
533,0.0
2,6, 1, 6, 0,15, 0.00,60.00,Friday
128,648472.3005024007
202,701779.2998855767
484,0.0
533,0.0
2,6, 1, 6, 0,16, 0.00,60.00,Friday
128,648472.3005024007
202,701779.2998855767
484,0.0
533,0.0
2,6, 1, 6, 0,17, 0.00,60.00,Friday
128,648472.3005024007
202,701779.2998855767
484,0.0
533,0.0
2,6, 1, 6, 0,18, 0.00,60.00,Friday
128,360262.38916800043
202,389877.38882532035
484,0.0
533,0.0
2,6, 1, 6, 0,19, 0.00,60.00,Friday
128,216157.43350080022
202,311901.9110602563
484,0.0
533,0.0
2,6, 1, 6, 0,20, 0.00,60.00,Friday
128,216157.43350080022
202,311901.9110602563
484,0.0
533,0.0
2,6, 1, 6, 0,21, 0.00,60.00,Friday
128,144104.95566720015
202,311901.9110602563
484,0.0
533,0.0
2,6, 1, 6, 0,22, 0.00,60.00,Friday
128,144104.95566720015
202,311901.9110602563
484,0.0
533,0.0
2,6, 1, 6, 0,23, 0.00,60.00,Friday
128,72052.47783360007
202,311901.9110602563
484,0.0
533,0.0
2,6, 1, 6, 0,24, 0.00,60.00,Friday
128,36026.23891680004
202,311901.9110602563
484,0.0
533,0.0
2,7, 1, 7, 0, 1, 0.00,60.00,Saturday
128,41778.000000000044
202,188789.28406256178
484,0.0
533,0.0
2,7, 1, 7, 0, 2, 0.00,60.00,Saturday
128,41778.000000000044
202,188789.28406256178
484,0.0
533,0.0
2,7, 1, 7, 0, 3, 0.00,60.00,Saturday
128,41778.000000000044
202,188789.28406256178
484,0.0
533,0.0
2,7, 1, 7, 0, 4, 0.00,60.00,Saturday
128,41778.000000000044
202,188789.28406256178
484,0.0
533,0.0
2,7, 1, 7, 0, 5, 0.00,60.00,Saturday
128,41778.000000000044
202,188789.28406256178
484,0.0
533,0.0
2,7, 1, 7, 0, 6, 0.00,60.00,Saturday
128,41778.000000000044
202,188789.28406256178
484,0.0
533,0.0
2,7, 1, 7, 0, 7, 0.00,60.00,Saturday
128,72052.47783360007
202,311901.9110602563
484,307251.3519639818
533,0.0
2,7, 1, 7, 0, 8, 0.00,60.00,Saturday
128,72052.47783360007
202,311901.9110602563
484,729431.9201355583
533,0.0
2,7, 1, 7, 0, 9, 0.00,60.00,Saturday
128,216157.43350080022
202,389877.38882532035
484,512951.0867963985
533,0.0
2,7, 1, 7, 0,10, 0.00,60.00,Saturday
128,216157.43350080022
202,389877.38882532035
484,406011.2624029159
533,0.0
2,7, 1, 7, 0,11, 0.00,60.00,Saturday
128,216157.43350080022
202,389877.38882532035
484,324104.69460428634
533,0.0
2,7, 1, 7, 0,12, 0.00,60.00,Saturday
128,216157.43350080022
202,389877.38882532035
484,238864.74137723388
533,0.0
2,7, 1, 7, 0,13, 0.00,60.00,Saturday
128,108078.71675040011
202,272914.17217772425
484,281948.01830617565
533,0.0
2,7, 1, 7, 0,14, 0.00,60.00,Saturday
128,108078.71675040011
202,272914.17217772425
484,183218.8845649307
533,0.0
2,7, 1, 7, 0,15, 0.00,60.00,Saturday
128,108078.71675040011
202,272914.17217772425
484,113648.6235158358
533,0.0
2,7, 1, 7, 0,16, 0.00,60.00,Saturday
128,108078.71675040011
202,272914.17217772425
484,74751.56006796657
533,0.0
2,7, 1, 7, 0,17, 0.00,60.00,Saturday
128,108078.71675040011
202,272914.17217772425
484,34427.20458576281
533,0.0
2,7, 1, 7, 0,18, 0.00,60.00,Saturday
128,36026.23891680004
202,233926.43329519226
484,0.0
533,0.0
2,7, 1, 7, 0,19, 0.00,60.00,Saturday
128,36026.23891680004
202,233926.43329519226
484,0.0
533,0.0
2,7, 1, 7, 0,20, 0.00,60.00,Saturday
128,41778.000000000044
202,188789.28406256178
484,0.0
533,0.0
2,7, 1, 7, 0,21, 0.00,60.00,Saturday
128,41778.000000000044
202,188789.28406256178
484,0.0
533,0.0
2,7, 1, 7, 0,22, 0.00,60.00,Saturday
128,41778.000000000044
202,188789.28406256178
484,0.0
533,0.0
2,7, 1, 7, 0,23, 0.00,60.00,Saturday
128,41778.000000000044
202,188789.28406256178
484,0.0
533,0.0
2,7, 1, 7, 0,24, 0.00,60.00,Saturday
128,41778.000000000044
202,188789.28406256178
484,0.0
533,0.0
2,8, 1, 8, 0, 1, 0.00,60.00,Sunday
128,41778.000000000044
202,188789.28406256178
484,0.0
533,0.0
2,8, 1, 8, 0, 2, 0.00,60.00,Sunday
128,41778.000000000044
202,188789.28406256178
484,0.0
533,0.0
2,8, 1, 8, 0, 3, 0.00,60.00,Sunday
128,41778.000000000044
202,188789.28406256178
484,0.0
533,0.0
2,8, 1, 8, 0, 4, 0.00,60.00,Sunday
128,41778.000000000044
202,188789.28406256178
484,0.0
533,0.0
2,8, 1, 8, 0, 5, 0.00,60.00,Sunday
128,41778.000000000044
202,188789.28406256178
484,0.0
533,0.0
2,8, 1, 8, 0, 6, 0.00,60.00,Sunday
128,41778.000000000044
202,188789.28406256178
484,0.0
533,0.0
2,8, 1, 8, 0, 7, 0.00,60.00,Sunday
128,36026.23891680004
202,235710.85172580025
484,0.0
533,0.0
2,8, 1, 8, 0, 8, 0.00,60.00,Sunday
128,36026.23891680004
202,235710.85172580025
484,0.0
533,0.0
2,8, 1, 8, 0, 9, 0.00,60.00,Sunday
128,36026.23891680004
202,235710.85172580025
484,0.0
533,0.0
2,8, 1, 8, 0,10, 0.00,60.00,Sunday
128,36026.23891680004
202,235710.85172580025
484,0.0
533,0.0
2,8, 1, 8, 0,11, 0.00,60.00,Sunday
128,36026.23891680004
202,235710.85172580025
484,0.0
533,0.0
2,8, 1, 8, 0,12, 0.00,60.00,Sunday
128,36026.23891680004
202,235710.85172580025
484,0.0
533,0.0
2,8, 1, 8, 0,13, 0.00,60.00,Sunday
128,36026.23891680004
202,235710.85172580025
484,0.0
533,0.0
2,8, 1, 8, 0,14, 0.00,60.00,Sunday
128,36026.23891680004
202,235710.85172580025
484,0.0
533,0.0
2,8, 1, 8, 0,15, 0.00,60.00,Sunday
128,36026.23891680004
202,235710.85172580025
484,0.0
533,0.0
2,8, 1, 8, 0,16, 0.00,60.00,Sunday
128,36026.23891680004
202,235710.85172580025
484,0.0
533,0.0
2,8, 1, 8, 0,17, 0.00,60.00,Sunday
128,36026.23891680004
202,235710.85172580025
484,0.0
533,0.0
2,8, 1, 8, 0,18, 0.00,60.00,Sunday
128,36026.23891680004
202,235710.85172580025
484,0.0
533,0.0
2,8, 1, 8, 0,19, 0.00,60.00,Sunday
128,41778.000000000044
202,188789.28406256178
484,0.0
533,0.0
2,8, 1, 8, 0,20, 0.00,60.00,Sunday
128,41778.000000000044
202,188789.28406256178
484,0.0
533,0.0
2,8, 1, 8, 0,21, 0.00,60.00,Sunday
128,41778.000000000044
202,188789.28406256178
484,0.0
533,0.0
2,8, 1, 8, 0,22, 0.00,60.00,Sunday
128,41778.000000000044
202,188789.28406256178
484,0.0
533,0.0
2,8, 1, 8, 0,23, 0.00,60.00,Sunday
128,41778.000000000044
202,188789.28406256178
484,0.0
533,0.0
2,8, 1, 8, 0,24, 0.00,60.00,Sunday
128,41778.000000000044
202,188789.28406256178
484,0.0
533,0.0
2,9, 1, 9, 0, 1, 0.00,60.00,Monday
128,41778.000000000044
202,251719.04541674902
484,0.0
533,0.0
2,9, 1, 9, 0, 2, 0.00,60.00,Monday
128,41778.000000000044
202,251719.04541674902
484,0.0
533,0.0
2,9, 1, 9, 0, 3, 0.00,60.00,Monday
128,41778.000000000044
202,251719.04541674902
484,0.0
533,0.0
2,9, 1, 9, 0, 4, 0.00,60.00,Monday
128,41778.000000000044
202,251719.04541674902
484,0.0
533,0.0
2,9, 1, 9, 0, 5, 0.00,60.00,Monday
128,41778.000000000044
202,251719.04541674902
484,0.0
533,0.0
2,9, 1, 9, 0, 6, 0.00,60.00,Monday
128,83556.00000000009
202,251719.04541674902
484,403916.4407375864
533,0.0
2,9, 1, 9, 0, 7, 0.00,60.00,Monday
128,72052.47783360007
202,311901.9110602563
484,1063702.3399328277
533,0.0
2,9, 1, 9, 0, 8, 0.00,60.00,Monday
128,216157.43350080022
202,311901.9110602563
484,1457695.0125880567
533,0.0
2,9, 1, 9, 0, 9, 0.00,60.00,Monday
128,648472.3005024007
202,701779.2998855767
484,586871.2487918488
533,0.0
2,9, 1, 9, 0,10, 0.00,60.00,Monday
128,648472.3005024007
202,701779.2998855767
484,270401.22334578657
533,0.0
2,9, 1, 9, 0,11, 0.00,60.00,Monday
128,648472.3005024007
202,701779.2998855767
484,57470.30082762937
533,0.0
2,9, 1, 9, 0,12, 0.00,60.00,Monday
128,648472.3005024007
202,701779.2998855767
484,0.0
533,0.0
2,9, 1, 9, 0,13, 0.00,60.00,Monday
128,648472.3005024007
202,623803.8221205126
484,0.0
533,0.0
2,9, 1, 9, 0,14, 0.00,60.00,Monday
128,648472.3005024007
202,701779.2998855767
484,0.0
533,0.0
2,9, 1, 9, 0,15, 0.00,60.00,Monday
128,648472.3005024007
202,701779.2998855767
484,0.0
533,0.0
2,9, 1, 9, 0,16, 0.00,60.00,Monday
128,648472.3005024007
202,701779.2998855767
484,0.0
533,0.0
2,9, 1, 9, 0,17, 0.00,60.00,Monday
128,648472.3005024007
202,701779.2998855767
484,0.0
533,0.0
2,9, 1, 9, 0,18, 0.00,60.00,Monday
128,360262.38916800043
202,389877.38882532035
484,0.0
533,0.0
2,9, 1, 9, 0,19, 0.00,60.00,Monday
128,216157.43350080022
202,311901.9110602563
484,1041.071337000873
533,0.0
2,9, 1, 9, 0,20, 0.00,60.00,Monday
128,216157.43350080022
202,311901.9110602563
484,82982.32867397275
533,0.0
2,9, 1, 9, 0,21, 0.00,60.00,Monday
128,144104.95566720015
202,311901.9110602563
484,185738.6701756749
533,0.0
2,9, 1, 9, 0,22, 0.00,60.00,Monday
128,144104.95566720015
202,311901.9110602563
484,256121.8015013909
533,0.0
2,9, 1, 9, 0,23, 0.00,60.00,Monday
128,72052.47783360007
202,311901.9110602563
484,0.0
533,0.0
2,9, 1, 9, 0,24, 0.00,60.00,Monday
128,36026.23891680004
202,311901.9110602563
484,0.0
533,0.0
2,10, 1,10, 0, 1, 0.00,60.00,Tuesday
128,41778.000000000044
202,251719.04541674902
484,0.0
533,0.0
2,10, 1,10, 0, 2, 0.00,60.00,Tuesday
128,41778.000000000044
202,251719.04541674902
484,0.0
533,0.0
2,10, 1,10, 0, 3, 0.00,60.00,Tuesday
128,41778.000000000044
202,251719.04541674902
484,0.0
533,0.0
2,10, 1,10, 0, 4, 0.00,60.00,Tuesday
128,41778.000000000044
202,251719.04541674902
484,0.0
533,0.0
2,10, 1,10, 0, 5, 0.00,60.00,Tuesday
128,41778.000000000044
202,251719.04541674902
484,0.0
533,0.0
2,10, 1,10, 0, 6, 0.00,60.00,Tuesday
128,83556.00000000009
202,251719.04541674902
484,436642.65188018675
533,0.0
2,10, 1,10, 0, 7, 0.00,60.00,Tuesday
128,72052.47783360007
202,311901.9110602563
484,948800.9146527319
533,0.0
2,10, 1,10, 0, 8, 0.00,60.00,Tuesday
128,216157.43350080022
202,311901.9110602563
484,1290683.415971888
533,0.0
2,10, 1,10, 0, 9, 0.00,60.00,Tuesday
128,648472.3005024007
202,701779.2998855767
484,464108.0824889302
533,0.0
2,10, 1,10, 0,10, 0.00,60.00,Tuesday
128,648472.3005024007
202,701779.2998855767
484,163846.36925352388
533,0.0
2,10, 1,10, 0,11, 0.00,60.00,Tuesday
128,648472.3005024007
202,701779.2998855767
484,5640.933578838398
533,0.0
2,10, 1,10, 0,12, 0.00,60.00,Tuesday
128,648472.3005024007
202,701779.2998855767
484,0.0
533,0.0
2,10, 1,10, 0,13, 0.00,60.00,Tuesday
128,648472.3005024007
202,623803.8221205126
484,0.0
533,0.0
2,10, 1,10, 0,14, 0.00,60.00,Tuesday
128,648472.3005024007
202,701779.2998855767
484,0.0
533,0.0
2,10, 1,10, 0,15, 0.00,60.00,Tuesday
128,648472.3005024007
202,701779.2998855767
484,0.0
533,0.0
2,10, 1,10, 0,16, 0.00,60.00,Tuesday
128,648472.3005024007
202,701779.2998855767
484,0.0
533,0.0
2,10, 1,10, 0,17, 0.00,60.00,Tuesday
128,648472.3005024007
202,701779.2998855767
484,0.0
533,0.0
2,10, 1,10, 0,18, 0.00,60.00,Tuesday
128,360262.38916800043
202,389877.38882532035
484,0.0
533,0.0
2,10, 1,10, 0,19, 0.00,60.00,Tuesday
128,216157.43350080022
202,311901.9110602563
484,0.0
533,0.0
2,10, 1,10, 0,20, 0.00,60.00,Tuesday
128,216157.43350080022
202,311901.9110602563
484,25709.157219005952
533,0.0
2,10, 1,10, 0,21, 0.00,60.00,Tuesday
128,144104.95566720015
202,311901.9110602563
484,115207.39287516347
533,0.0
2,10, 1,10, 0,22, 0.00,60.00,Tuesday
128,144104.95566720015
202,311901.9110602563
484,176520.89284534313
533,0.0
2,10, 1,10, 0,23, 0.00,60.00,Tuesday
128,72052.47783360007
202,311901.9110602563
484,0.0
533,0.0
2,10, 1,10, 0,24, 0.00,60.00,Tuesday
128,36026.23891680004
202,311901.9110602563
484,0.0
533,0.0
2,11, 1,11, 0, 1, 0.00,60.00,Wednesday
128,41778.000000000044
202,251719.04541674902
484,0.0
533,0.0
2,11, 1,11, 0, 2, 0.00,60.00,Wednesday
128,41778.000000000044
202,251719.04541674902
484,0.0
533,0.0
2,11, 1,11, 0, 3, 0.00,60.00,Wednesday
128,41778.000000000044
202,251719.04541674902
484,0.0
533,0.0
2,11, 1,11, 0, 4, 0.00,60.00,Wednesday
128,41778.000000000044
202,251719.04541674902
484,0.0
533,0.0
2,11, 1,11, 0, 5, 0.00,60.00,Wednesday
128,41778.000000000044
202,251719.04541674902
484,0.0
533,0.0
2,11, 1,11, 0, 6, 0.00,60.00,Wednesday
128,83556.00000000009
202,251719.04541674902
484,0.0
533,0.0
2,11, 1,11, 0, 7, 0.00,60.00,Wednesday
128,72052.47783360007
202,311901.9110602563
484,608493.3966829756
533,0.0
2,11, 1,11, 0, 8, 0.00,60.00,Wednesday
128,216157.43350080022
202,311901.9110602563
484,898988.4014938253
533,0.0
2,11, 1,11, 0, 9, 0.00,60.00,Wednesday
128,648472.3005024007
202,701779.2998855767
484,117469.20161330172
533,0.0
2,11, 1,11, 0,10, 0.00,60.00,Wednesday
128,648472.3005024007
202,701779.2998855767
484,0.0
533,0.0
2,11, 1,11, 0,11, 0.00,60.00,Wednesday
128,648472.3005024007
202,701779.2998855767
484,0.0
533,0.0
2,11, 1,11, 0,12, 0.00,60.00,Wednesday
128,648472.3005024007
202,701779.2998855767
484,0.0
533,0.0
2,11, 1,11, 0,13, 0.00,60.00,Wednesday
128,648472.3005024007
202,623803.8221205126
484,0.0
533,0.0
2,11, 1,11, 0,14, 0.00,60.00,Wednesday
128,648472.3005024007
202,701779.2998855767
484,0.0
533,0.0
2,11, 1,11, 0,15, 0.00,60.00,Wednesday
128,648472.3005024007
202,701779.2998855767
484,0.0
533,0.0
2,11, 1,11, 0,16, 0.00,60.00,Wednesday
128,648472.3005024007
202,701779.2998855767
484,0.0
533,0.0
2,11, 1,11, 0,17, 0.00,60.00,Wednesday
128,648472.3005024007
202,701779.2998855767
484,0.0
533,0.0
2,11, 1,11, 0,18, 0.00,60.00,Wednesday
128,360262.38916800043
202,389877.38882532035
484,0.0
533,0.0
2,11, 1,11, 0,19, 0.00,60.00,Wednesday
128,216157.43350080022
202,311901.9110602563
484,0.0
533,0.0
2,11, 1,11, 0,20, 0.00,60.00,Wednesday
128,216157.43350080022
202,311901.9110602563
484,0.0
533,0.0
2,11, 1,11, 0,21, 0.00,60.00,Wednesday
128,144104.95566720015
202,311901.9110602563
484,0.0
533,0.0
2,11, 1,11, 0,22, 0.00,60.00,Wednesday
128,144104.95566720015
202,311901.9110602563
484,0.0
533,0.0
2,11, 1,11, 0,23, 0.00,60.00,Wednesday
128,72052.47783360007
202,311901.9110602563
484,0.0
533,0.0
2,11, 1,11, 0,24, 0.00,60.00,Wednesday
128,36026.23891680004
202,311901.9110602563
484,0.0
533,0.0
2,12, 1,12, 0, 1, 0.00,60.00,Thursday
128,41778.000000000044
202,251719.04541674902
484,0.0
533,0.0
2,12, 1,12, 0, 2, 0.00,60.00,Thursday
128,41778.000000000044
202,251719.04541674902
484,0.0
533,0.0
2,12, 1,12, 0, 3, 0.00,60.00,Thursday
128,41778.000000000044
202,251719.04541674902
484,0.0
533,0.0
2,12, 1,12, 0, 4, 0.00,60.00,Thursday
128,41778.000000000044
202,251719.04541674902
484,0.0
533,0.0
2,12, 1,12, 0, 5, 0.00,60.00,Thursday
128,41778.000000000044
202,251719.04541674902
484,0.0
533,0.0
2,12, 1,12, 0, 6, 0.00,60.00,Thursday
128,83556.00000000009
202,251719.04541674902
484,0.0
533,0.0
2,12, 1,12, 0, 7, 0.00,60.00,Thursday
128,72052.47783360007
202,311901.9110602563
484,9780.018509250345
533,0.0
2,12, 1,12, 0, 8, 0.00,60.00,Thursday
128,216157.43350080022
202,311901.9110602563
484,333067.31360224454
533,0.0
2,12, 1,12, 0, 9, 0.00,60.00,Thursday
128,648472.3005024007
202,701779.2998855767
484,0.0
533,0.0
2,12, 1,12, 0,10, 0.00,60.00,Thursday
128,648472.3005024007
202,701779.2998855767
484,0.0
533,0.0
2,12, 1,12, 0,11, 0.00,60.00,Thursday
128,648472.3005024007
202,701779.2998855767
484,0.0
533,0.0
2,12, 1,12, 0,12, 0.00,60.00,Thursday
128,648472.3005024007
202,701779.2998855767
484,0.0
533,0.0
2,12, 1,12, 0,13, 0.00,60.00,Thursday
128,648472.3005024007
202,623803.8221205126
484,0.0
533,0.0
2,12, 1,12, 0,14, 0.00,60.00,Thursday
128,648472.3005024007
202,701779.2998855767
484,0.0
533,0.0
2,12, 1,12, 0,15, 0.00,60.00,Thursday
128,648472.3005024007
202,701779.2998855767
484,0.0
533,0.0
2,12, 1,12, 0,16, 0.00,60.00,Thursday
128,648472.3005024007
202,701779.2998855767
484,0.0
533,0.0
2,12, 1,12, 0,17, 0.00,60.00,Thursday
128,648472.3005024007
202,701779.2998855767
484,0.0
533,0.0
2,12, 1,12, 0,18, 0.00,60.00,Thursday
128,360262.38916800043
202,389877.38882532035
484,0.0
533,0.0
2,12, 1,12, 0,19, 0.00,60.00,Thursday
128,216157.43350080022
202,311901.9110602563
484,0.0
533,0.0
2,12, 1,12, 0,20, 0.00,60.00,Thursday
128,216157.43350080022
202,311901.9110602563
484,0.0
533,0.0
2,12, 1,12, 0,21, 0.00,60.00,Thursday
128,144104.95566720015
202,311901.9110602563
484,0.0
533,0.0
2,12, 1,12, 0,22, 0.00,60.00,Thursday
128,144104.95566720015
202,311901.9110602563
484,0.0
533,0.0
2,12, 1,12, 0,23, 0.00,60.00,Thursday
128,72052.47783360007
202,311901.9110602563
484,0.0
533,0.0
2,12, 1,12, 0,24, 0.00,60.00,Thursday
128,36026.23891680004
202,311901.9110602563
484,0.0
533,0.0
2,13, 1,13, 0, 1, 0.00,60.00,Friday
128,41778.000000000044
202,251719.04541674902
484,0.0
533,0.0
2,13, 1,13, 0, 2, 0.00,60.00,Friday
128,41778.000000000044
202,251719.04541674902