Program Version,EnergyPlus, Version 23.2.0-7636e6b3e9, YMD=2024.11.04 10:18
1,5,Environment Title[],Latitude[deg],Longitude[deg],Time Zone[],Elevation[m]
2,8,Day of Simulation[],Month[],Day of Month[],DST Indicator[1=yes 0=no],Hour[],StartMinute[],EndMinute[],DayType
3,5,Cumulative Day of Simulation[],Month[],Day of Month[],DST Indicator[1=yes 0=no],DayType  ! When Daily Report Variables Requested
4,2,Cumulative Days of Simulation[],Month[]  ! When Monthly Report Variables Requested
5,1,Cumulative Days of Simulation[] ! When Run Period Report Variables Requested
6,1,Calendar Year of Simulation[] ! When Annual Report Variables Requested
7,1,ROOM_3_388A625F,Zone People Total Heating Energy [J] !Hourly
129,1,ROOM_3_388A625F,Zone Lights Electricity Energy [J] !Hourly
203,1,ROOM_3_388A625F,Zone Electric Equipment Electricity Energy [J] !Hourly
204,1,ROOM_3_388A625F,Zone Mean Radiant Temperature [C] !Hourly
205,1,ROOM_3_388A625F_SPACE,Zone Windows Total Transmitted Solar Radiation Energy [J] !Hourly
206,1,ROOM_3_388A625F,Zone Mean Air Temperature [C] !Hourly
207,1,ROOM_3_388A625F,Zone Operative Temperature [C] !Hourly
208,1,ROOM_3_388A625F,Zone Infiltration Total Heat Loss Energy [J] !Hourly
209,1,ROOM_3_388A625F,Zone Infiltration Total Heat Gain Energy [J] !Hourly
210,1,ROOM_3_388A625F,Zone Air Relative Humidity [%] !Hourly
443,1,Whole Building,Facility Net Purchased Electricity Energy [J] !Hourly
492,1,Whole Building,Facility Total Produced Electricity Energy [J] !Hourly
493,1,ROOM_3_388A625F,Zone Heating Setpoint Not Met Time [hr] !Hourly
494,1,ROOM_3_388A625F,Zone Cooling Setpoint Not Met Time [hr] !Hourly
495,1,ROOM_3_388A625F IDEAL LOADS AIR SYSTEM,Zone Ideal Loads Supply Air Total Heating Energy [J] !Hourly
544,1,ROOM_3_388A625F IDEAL LOADS AIR SYSTEM,Zone Ideal Loads Supply Air Total Cooling Energy [J] !Hourly
593,1,ROOM_3_388A625F IDEAL LOADS AIR SYSTEM,Zone Ideal Loads Zone Total Heating Energy [J] !Hourly
594,1,ROOM_3_388A625F IDEAL LOADS AIR SYSTEM,Zone Ideal Loads Zone Total Cooling Energy [J] !Hourly
End of Data Dictionary
1,RUN PERIOD 1,  22.55, 114.10,   8.00,  18.00
2,1, 8,20, 0, 1, 0.00,60.00,Sunday
7,0.0
129,41778.00000000004
203,188789.2840625617
204,27.912027176332405
205,0.0
206,26.70000000000001
207,27.30601358816621
493,0.0
494,0.0
208,637.4385875313449
209,59468.65861779976
210,91.0404126486917
443,230567.2840625618
492,0.0
495,0.0
544,907518.3398514616
593,177325.5922048514
594,713475.8777680901
2,1, 8,20, 0, 2, 0.00,60.00,Sunday
7,0.0
129,41778.00000000004
203,188789.2840625617
204,27.855383247038557
205,0.0
206,26.700000000000006
207,27.277691623519278
493,0.0
494,0.0
208,0.0
209,115167.94286193604
210,93.04657765196778
443,230567.2840625618
492,0.0
495,0.0
544,1425339.6551400742
593,0.0
594,767415.725744989
2,1, 8,20, 0, 3, 0.00,60.00,Sunday
7,0.0
129,41778.00000000004
203,188789.2840625617
204,27.795127544618296
205,0.0
206,26.70000000000001
207,27.247563772309146
493,0.0
494,0.0
208,0.0
209,59056.39102478845
210,93.54857058261578
443,230567.2840625618
492,0.0
495,0.0
544,1028068.4642280053
593,0.0
594,690078.5374028996
2,1, 8,20, 0, 4, 0.00,60.00,Sunday
7,0.0
129,41778.00000000004
203,188789.2840625617
204,27.735928155237573
205,0.0
206,26.70000000000001
207,27.217964077618785
493,0.0
494,0.0
208,0.0
209,39901.30612527928
210,93.9287878252569
443,230567.2840625618
492,0.0
495,0.0
544,862612.6887094643
593,0.0
594,632916.6645654986
2,1, 8,20, 0, 5, 0.00,60.00,Sunday
7,0.0
129,41778.00000000004
203,188789.2840625617
204,27.680144600712634
205,0.0
206,26.70000000000001
207,27.190072300356302
493,0.0
494,0.0
208,0.0
209,21818.9459450506
210,94.2876165457742
443,230567.2840625618
492,0.0
495,0.0
544,707478.8349930475
593,0.0
594,580105.8671437346
2,1, 8,20, 0, 6, 0.00,60.00,Sunday
7,0.0
129,41778.00000000004
203,188789.2840625617
204,27.62063551371591
205,0.0
206,26.70000000000001
207,27.160317756857957
493,0.0
494,0.0
208,52101.00222021702
209,514.0655835638313
210,94.59505489392151
443,230567.2840625618
492,0.0
495,0.0
544,212121.28420261532
593,2847.5441676784794
594,490976.1795021461
2,1, 8,20, 0, 7, 0.00,60.00,Sunday
7,26848.80000000001
129,36026.238916800015
203,235710.85172580028
204,27.594742882327417
205,81645.72319166388
206,26.70000000000001
207,27.14737144116371
493,0.0
494,0.0
208,131021.88400297244
209,0.0
210,93.5862288876986
443,271737.09064260015
492,0.0
495,0.0
544,3.8274846085263514e-10
593,0.0
594,560090.179584374
2,1, 8,20, 0, 8, 0.00,60.00,Sunday
7,26848.80000000001
129,36026.238916800015
203,235710.85172580028
204,27.613024165987564
205,237996.3721385002
206,26.70000000000001
207,27.156512082993782
493,0.0
494,0.0
208,164033.259521208
209,0.0
210,91.71344107007694
443,271737.09064260015
492,0.0
495,0.0
544,1.3726539763741396e-10
593,0.0
594,516763.8091741566
2,1, 8,20, 0, 9, 0.00,60.00,Sunday
7,26848.80000000001
129,36026.238916800015
203,235710.85172580028
204,27.643139416963628
205,369165.0104578955
206,26.70000000000001
207,27.17156970848181
493,0.0
494,0.0
208,127686.34702931868
209,0.0
210,90.64171294920392
443,271737.09064260015
492,0.0
495,0.0
544,2583.0560890264323
593,0.0
594,500140.0362865408
2,1, 8,20, 0,10, 0.00,60.00,Sunday
7,26848.80000000001
129,36026.238916800015
203,235710.85172580028
204,27.802826481906262
205,667045.2461942483
206,26.70000000000001
207,27.25141324095314
493,0.0
494,0.0
208,61318.176180474344
209,0.0
210,90.67536137029175
443,271737.09064260015
492,0.0
495,0.0
544,289423.78734881146
593,4337.873904434651
594,634457.6129175544
2,1, 8,20, 0,11, 0.00,60.00,Sunday
7,26848.80000000001
129,36026.238916800015
203,235710.85172580028
204,27.87574872064342
205,694385.3774910242
206,26.70000000000001
207,27.28787436032171
493,0.0
494,0.0
208,11214.697678783987
209,107900.82351597333
210,88.71825969128285
443,271737.09064260015
492,0.0
495,0.0
544,1328108.3559670618
593,12.095409301126665
594,1344838.2893105727
2,1, 8,20, 0,12, 0.00,60.00,Sunday
7,26848.80000000001
129,36026.238916800015
203,235710.85172580028
204,28.008746699621728
205,956677.1431293745
206,26.70000000000001
207,27.35437334981086
493,0.0
494,0.0
208,0.0
209,805320.9784192361
210,76.4715878097591
443,271737.09064260015
492,0.0
495,0.0
544,2555118.4959639558
593,0.0
594,2165475.106243667
2,1, 8,20, 0,13, 0.00,60.00,Sunday
7,26848.80000000001
129,36026.238916800015
203,235710.85172580028
204,28.325974341668775
205,1428983.1056436303
206,26.70000000000001
207,27.512987170834382
493,0.0
494,0.0
208,0.0
209,1289433.2651019774
210,69.9946573253938
443,271737.09064260015
492,0.0
495,0.0
544,3255342.1347039347
593,0.0
594,2619728.5506890668
2,1, 8,20, 0,14, 0.00,60.00,Sunday
7,26848.80000000001
129,36026.238916800015
203,235710.85172580028
204,28.454601149376824
205,1254400.7312352841
206,26.70000000000001
207,27.577300574688408
493,0.0
494,0.0
208,0.0
209,1603123.5112227355
210,67.2924747731531
443,271737.09064260015
492,0.0
495,0.0
544,3651708.906475819
593,0.0
594,2854011.4920623098
2,1, 8,20, 0,15, 0.00,60.00,Sunday
7,26848.80000000001
129,36026.238916800015
203,235710.85172580028
204,28.504710739511776
205,1117304.5796141033
206,26.70000000000001
207,27.602355369755887
493,0.0
494,0.0
208,0.0
209,1747841.4072074792
210,66.5521114986139
443,271737.09064260015
492,0.0
495,0.0
544,3862217.100912964
593,0.0
594,2989177.145645712
2,1, 8,20, 0,16, 0.00,60.00,Sunday
7,26848.80000000001
129,36026.238916800015
203,235710.85172580028
204,28.474621538723106
205,863102.3088096638
206,26.70000000000001
207,27.58731076936156
493,0.0
494,0.0
208,0.0
209,1786727.9501894885
210,66.39970101912444
443,271737.09064260015
492,0.0
495,0.0
544,3874054.1002249215
593,0.0
594,2980259.1356620565
2,1, 8,20, 0,17, 0.00,60.00,Sunday
7,26848.80000000001
129,36026.238916800015
203,235710.85172580028
204,28.45656839258937
205,697310.4492074437
206,26.70000000000001
207,27.578284196294682
493,0.0
494,0.0
208,0.0
209,1822532.467846317
210,66.28917544170146
443,271737.09064260015
492,0.0
495,0.0
544,3909274.792566038
593,0.0
594,2996497.5123499474
2,1, 8,20, 0,18, 0.00,60.00,Sunday
7,26848.80000000001
129,36026.238916800015
203,235710.85172580028
204,28.36459835740434
205,373018.9939793375
206,26.70000000000001
207,27.532299178702164
493,0.0
494,0.0
208,0.0
209,1792450.0904171772
210,66.70127032685336
443,271737.09064260015
492,0.0
495,0.0
544,3734189.5341341607
593,0.0
594,2836246.7284289687
2,1, 8,20, 0,19, 0.00,60.00,Sunday
7,0.0
129,41778.00000000004
203,188789.2840625617
204,28.220244271974288
205,86715.8104528959
206,26.70000000000001
207,27.460122135987145
493,0.0
494,0.0
208,0.0
209,1673304.031446495
210,68.19274194020494
443,230567.2840625618
492,0.0
495,0.0
544,3353472.583620844
593,0.0
594,2516693.0778762787
2,1, 8,20, 0,20, 0.00,60.00,Sunday
7,0.0
129,41778.00000000004
203,188789.2840625617
204,28.137686165803927
205,0.0
206,26.70000000000001
207,27.418843082901958
493,0.0
494,0.0
208,0.0
209,1539267.5921840493
210,69.7944775326774
443,230567.2840625618
492,0.0
495,0.0
544,3116305.202896756
593,0.0
594,2348876.824326927
2,1, 8,20, 0,21, 0.00,60.00,Sunday
7,0.0
129,41778.00000000004
203,188789.2840625617
204,28.110053643383402
205,0.0
206,26.70000000000001
207,27.4050268216917
493,0.0
494,0.0
208,0.0
209,1387274.5413968198
210,70.66641278959969
443,230567.2840625618
492,0.0
495,0.0
544,2908632.502364472
593,0.0
594,2219323.185706677
2,1, 8,20, 0,22, 0.00,60.00,Sunday
7,0.0
129,41778.00000000004
203,188789.2840625617
204,28.077592054643038
205,0.0
206,26.70000000000001
207,27.388796027321515
493,0.0
494,0.0
208,0.0
209,1225221.5714483717
210,70.92267130557387
443,230567.2840625618
492,0.0
495,0.0
544,2670131.005626609
593,0.0
594,2063407.7593524014
2,1, 8,20, 0,23, 0.00,60.00,Sunday
7,0.0
129,41778.00000000004
203,188789.2840625617
204,28.03678681565016
205,0.0
206,26.70000000000001
207,27.368393407825085
493,0.0
494,0.0
208,0.0
209,1073382.0535275447
210,70.95875687013275
443,230567.2840625618
492,0.0
495,0.0
544,2411733.8427771707
593,0.0
594,1881946.1502760432
2,1, 8,20, 0,24, 0.00,60.00,Sunday
7,0.0
129,41778.00000000004
203,188789.2840625617
204,27.984431846781987
205,0.0
206,26.70000000000001
207,27.342215923390995
493,0.0
494,0.0
208,1445.0526748468906
209,519869.27469261433
210,79.20728111185944
443,230567.2840625618
492,0.0
495,0.0
544,1284428.0478305686
593,967018.0752704433
594,1153292.276150216
End of Data
 Number of Records Written=         432
